<?xml version="1.0"?>
<VTKFile type="UnstructuredGrid" version="0.1" byte_order="LittleEndian">
  <UnstructuredGrid>
    <Piece NumberOfPoints="16" NumberOfCells="9">
      <Points>
        <DataArray type="Float64" NumberOfComponents="3" format="ascii">
          -1.00000000e+00 0.00000000e+00 0.00000000e+00 
-8.33333313e-01 0.00000000e+00 0.00000000e+00 
-6.66666687e-01 0.00000000e+00 0.00000000e+00 
-5.00000000e-01 0.00000000e+00 0.00000000e+00 
-1.00000000e+00 1.66666672e-01 0.00000000e+00 
-8.33333313e-01 1.66666672e-01 0.00000000e+00 
-6.66666687e-01 1.66666672e-01 0.00000000e+00 
-5.00000000e-01 1.66666672e-01 0.00000000e+00 
-1.00000000e+00 3.33333343e-01 0.00000000e+00 
-8.33333313e-01 3.33333343e-01 0.00000000e+00 
-6.66666687e-01 3.33333343e-01 0.00000000e+00 
-5.00000000e-01 3.33333343e-01 0.00000000e+00 
-1.00000000e+00 5.00000000e-01 0.00000000e+00 
-8.33333313e-01 5.00000000e-01 0.00000000e+00 
-6.66666687e-01 5.00000000e-01 0.00000000e+00 
-5.00000000e-01 5.00000000e-01 0.00000000e+00 

        </DataArray>
      </Points>
      <Cells>
        <DataArray type="Int32" Name="connectivity" format="ascii">
0 1 5 4
4 5 9 8
8 9 13 12
1 2 6 5
5 6 10 9
9 10 14 13
2 3 7 6
6 7 11 10
10 11 15 14

        </DataArray>
        <DataArray type="Int32" Name="offsets" format="ascii">
4 8 12 16 20 24 28 32 36 
        </DataArray>
        <DataArray type="UInt8" Name="types" format="ascii">
9 9 9 9 9 9 9 9 9 
        </DataArray>
      </Cells>
      <PointData>
        <DataArray type="Float64" Name="rho">
          1.16086232e+00 1.16086232e+00 1.16086232e+00 1.16086232e+00 1.15993467e+00 1.15993467e+00 1.15993467e+00 1.15993467e+00 1.15937878e+00 1.15937878e+00 1.15937878e+00 1.15937878e+00 1.15919356e+00 1.15919356e+00 1.15919356e+00 1.15919356e+00 
        </DataArray>
        <DataArray type="Float64" Name="rhou">
          1.78525551e-06 1.78525448e-06 1.78525453e-06 1.78525433e-06 1.34252775e+01 1.34252775e+01 1.34252775e+01 1.34252775e+01 2.68376862e+01 2.68376862e+01 2.68376862e+01 2.68376862e+01 4.02501015e+01 4.02501015e+01 4.02501015e+01 4.02501015e+01 
        </DataArray>
        <DataArray type="Float64" Name="rhov">
          2.46852508e-11 2.46417501e-11 2.45951561e-11 2.44568773e-11 -5.72985228e-10 -5.72957203e-10 -5.73157465e-10 -5.72956143e-10 -8.18116850e-10 -8.18210844e-10 -8.18246361e-10 -8.18298135e-10 -8.26775007e-10 -8.26327412e-10 -8.26436313e-10 -8.26411074e-10 
        </DataArray>
        <DataArray type="Float64" Name="E">
          2.49999986e+05 2.49999986e+05 2.49999986e+05 2.49999986e+05 2.50077693e+05 2.50077693e+05 2.50077693e+05 2.50077693e+05 2.50310624e+05 2.50310624e+05 2.50310624e+05 2.50310624e+05 2.50698778e+05 2.50698778e+05 2.50698778e+05 2.50698778e+05 
        </DataArray>
        <DataArray type="Float64" Name="u">
          1.02757802e-10 1.01877744e-10 1.01914004e-10 1.01739062e-10 1.15741667e+01 1.15741667e+01 1.15741667e+01 1.15741667e+01 2.31483333e+01 2.31483333e+01 2.31483333e+01 2.31483333e+01 3.47225000e+01 3.47225000e+01 3.47225000e+01 3.47225000e+01 
        </DataArray>
        <DataArray type="Float64" Name="v">
          2.12973114e-11 2.12597891e-11 2.12196992e-11 2.11004979e-11 -4.93978293e-10 -4.93954147e-10 -4.94126786e-10 -4.93953240e-10 -7.05652548e-10 -7.05733607e-10 -7.05764250e-10 -7.05808893e-10 -7.13200165e-10 -7.12814088e-10 -7.12907986e-10 -7.12886297e-10 
        </DataArray>
        <DataArray type="Float64" Name="p">
          1.00000000e+05 1.00000000e+05 1.00000000e+05 1.00000000e+05 1.00000000e+05 1.00000000e+05 1.00000000e+05 1.00000000e+05 1.00000000e+05 1.00000000e+05 1.00000000e+05 1.00000000e+05 1.00000000e+05 1.00000000e+05 1.00000000e+05 1.00000000e+05 
        </DataArray>
        <DataArray type="Float64" Name="T">
          3.00000000e+02 3.00000000e+02 3.00000000e+02 3.00000000e+02 3.00239931e+02 3.00239931e+02 3.00239931e+02 3.00239931e+02 3.00383889e+02 3.00383889e+02 3.00383889e+02 3.00383889e+02 3.00431875e+02 3.00431875e+02 3.00431875e+02 3.00431875e+02 
        </DataArray>
        <DataArray type="Float64" Name="s">
          4.05166988e+03 4.05166988e+03 4.05166988e+03 4.05166988e+03 4.05247331e+03 4.05247331e+03 4.05247331e+03 4.05247331e+03 4.05295507e+03 4.05295507e+03 4.05295507e+03 4.05295507e+03 4.05311562e+03 4.05311562e+03 4.05311562e+03 4.05311562e+03 
        </DataArray>
        <DataArray type="Float64" Name="a">
          3.47275108e+02 3.47275108e+02 3.47275108e+02 3.47275108e+02 3.47413949e+02 3.47413949e+02 3.47413949e+02 3.47413949e+02 3.47497228e+02 3.47497228e+02 3.47497228e+02 3.47497228e+02 3.47524984e+02 3.47524984e+02 3.47524984e+02 3.47524984e+02 
        </DataArray>
        <DataArray type="Float64" Name="Mach">
          1.66169321e-09 1.66169062e-09 1.66169075e-09 1.66169023e-09 3.33152045e-02 3.33152045e-02 3.33152045e-02 3.33152045e-02 6.66144401e-02 6.66144401e-02 6.66144401e-02 6.66144401e-02 9.99136818e-02 9.99136818e-02 9.99136818e-02 9.99136818e-02 
        </DataArray>
        <DataArray type="Float64" Name="Sensor">
          -6.86125658e+00 -6.86125658e+00 -6.86125658e+00 -6.86125658e+00 -6.86125658e+00 -6.86125658e+00 -6.86125658e+00 -6.86125658e+00 -6.86125658e+00 -6.86125658e+00 -6.86125658e+00 -6.86125658e+00 -6.86125658e+00 -6.86125658e+00 -6.86125658e+00 -6.86125658e+00 
        </DataArray>
      </PointData>
    </Piece>
    <Piece NumberOfPoints="16" NumberOfCells="9">
      <Points>
        <DataArray type="Float64" NumberOfComponents="3" format="ascii">
          -1.00000000e+00 5.00000000e-01 0.00000000e+00 
-8.33333313e-01 5.00000000e-01 0.00000000e+00 
-6.66666687e-01 5.00000000e-01 0.00000000e+00 
-5.00000000e-01 5.00000000e-01 0.00000000e+00 
-1.00000000e+00 6.66666687e-01 0.00000000e+00 
-8.33333313e-01 6.66666687e-01 0.00000000e+00 
-6.66666687e-01 6.66666687e-01 0.00000000e+00 
-5.00000000e-01 6.66666687e-01 0.00000000e+00 
-1.00000000e+00 8.33333313e-01 0.00000000e+00 
-8.33333313e-01 8.33333313e-01 0.00000000e+00 
-6.66666687e-01 8.33333313e-01 0.00000000e+00 
-5.00000000e-01 8.33333313e-01 0.00000000e+00 
-1.00000000e+00 1.00000000e+00 0.00000000e+00 
-8.33333313e-01 1.00000000e+00 0.00000000e+00 
-6.66666687e-01 1.00000000e+00 0.00000000e+00 
-5.00000000e-01 1.00000000e+00 0.00000000e+00 

        </DataArray>
      </Points>
      <Cells>
        <DataArray type="Int32" Name="connectivity" format="ascii">
0 1 5 4
4 5 9 8
8 9 13 12
1 2 6 5
5 6 10 9
9 10 14 13
2 3 7 6
6 7 11 10
10 11 15 14

        </DataArray>
        <DataArray type="Int32" Name="offsets" format="ascii">
4 8 12 16 20 24 28 32 36 
        </DataArray>
        <DataArray type="UInt8" Name="types" format="ascii">
9 9 9 9 9 9 9 9 9 
        </DataArray>
      </Cells>
      <PointData>
        <DataArray type="Float64" Name="rho">
          1.15919356e+00 1.15919356e+00 1.15919356e+00 1.15919356e+00 1.15937878e+00 1.15937878e+00 1.15937878e+00 1.15937878e+00 1.15993467e+00 1.15993467e+00 1.15993467e+00 1.15993467e+00 1.16086232e+00 1.16086232e+00 1.16086232e+00 1.16086232e+00 
        </DataArray>
        <DataArray type="Float64" Name="rhou">
          4.02500955e+01 4.02500955e+01 4.02500955e+01 4.02500955e+01 5.36753730e+01 5.36753730e+01 5.36753730e+01 5.36753730e+01 6.71263860e+01 6.71263860e+01 6.71263860e+01 6.71263860e+01 8.06160821e+01 8.06160821e+01 8.06160821e+01 8.06160821e+01 
        </DataArray>
        <DataArray type="Float64" Name="rhov">
          -8.41155665e-10 -8.41585175e-10 -8.41142100e-10 -8.42038880e-10 -8.88737441e-10 -8.88671898e-10 -8.88825532e-10 -8.88665137e-10 -9.30213344e-10 -9.30350461e-10 -9.30235969e-10 -9.30488574e-10 -9.81914233e-10 -9.80725340e-10 -9.81564582e-10 -9.80536116e-10 
        </DataArray>
        <DataArray type="Float64" Name="E">
          2.50698777e+05 2.50698777e+05 2.50698777e+05 2.50698777e+05 2.51242495e+05 2.51242495e+05 2.51242495e+05 2.51242495e+05 2.51942330e+05 2.51942330e+05 2.51942330e+05 2.51942330e+05 2.52799177e+05 2.52799177e+05 2.52799177e+05 2.52799177e+05 
        </DataArray>
        <DataArray type="Float64" Name="u">
          3.47225000e+01 3.47225000e+01 3.47225000e+01 3.47225000e+01 4.62966667e+01 4.62966667e+01 4.62966667e+01 4.62966667e+01 5.78708333e+01 5.78708333e+01 5.78708333e+01 5.78708333e+01 6.94450000e+01 6.94450000e+01 6.94450000e+01 6.94450000e+01 
        </DataArray>
        <DataArray type="Float64" Name="v">
          -7.25640105e-10 -7.26010419e-10 -7.25628373e-10 -7.26401736e-10 -7.66563239e-10 -7.66506740e-10 -7.66639222e-10 -7.66500925e-10 -8.01953503e-10 -8.02071675e-10 -8.01973006e-10 -8.02190726e-10 -8.45850441e-10 -8.44826084e-10 -8.45549211e-10 -8.44663000e-10 
        </DataArray>
        <DataArray type="Float64" Name="p">
          1.00000000e+05 1.00000000e+05 1.00000000e+05 1.00000000e+05 1.00000000e+05 1.00000000e+05 1.00000000e+05 1.00000000e+05 1.00000000e+05 1.00000000e+05 1.00000000e+05 1.00000000e+05 1.00000000e+05 1.00000000e+05 1.00000000e+05 1.00000000e+05 
        </DataArray>
        <DataArray type="Float64" Name="T">
          3.00431875e+02 3.00431875e+02 3.00431875e+02 3.00431875e+02 3.00383889e+02 3.00383889e+02 3.00383889e+02 3.00383889e+02 3.00239931e+02 3.00239931e+02 3.00239931e+02 3.00239931e+02 3.00000000e+02 3.00000000e+02 3.00000000e+02 3.00000000e+02 
        </DataArray>
        <DataArray type="Float64" Name="s">
          4.05311562e+03 4.05311562e+03 4.05311562e+03 4.05311562e+03 4.05295507e+03 4.05295507e+03 4.05295507e+03 4.05295507e+03 4.05247331e+03 4.05247331e+03 4.05247331e+03 4.05247331e+03 4.05166988e+03 4.05166988e+03 4.05166988e+03 4.05166988e+03 
        </DataArray>
        <DataArray type="Float64" Name="a">
          3.47524984e+02 3.47524984e+02 3.47524984e+02 3.47524984e+02 3.47497228e+02 3.47497228e+02 3.47497228e+02 3.47497228e+02 3.47413949e+02 3.47413949e+02 3.47413949e+02 3.47413949e+02 3.47275108e+02 3.47275108e+02 3.47275108e+02 3.47275108e+02 
        </DataArray>
        <DataArray type="Float64" Name="Mach">
          9.99136762e-02 9.99136762e-02 9.99136762e-02 9.99136762e-02 1.33228881e-01 1.33228881e-01 1.33228881e-01 1.33228881e-01 1.66576021e-01 1.66576021e-01 1.66576021e-01 1.66576021e-01 1.99971139e-01 1.99971139e-01 1.99971139e-01 1.99971139e-01 
        </DataArray>
        <DataArray type="Float64" Name="Sensor">
          -6.86129635e+00 -6.86129635e+00 -6.86129635e+00 -6.86129635e+00 -6.86129635e+00 -6.86129635e+00 -6.86129635e+00 -6.86129635e+00 -6.86129635e+00 -6.86129635e+00 -6.86129635e+00 -6.86129635e+00 -6.86129635e+00 -6.86129635e+00 -6.86129635e+00 -6.86129635e+00 
        </DataArray>
      </PointData>
    </Piece>
    <Piece NumberOfPoints="16" NumberOfCells="9">
      <Points>
        <DataArray type="Float64" NumberOfComponents="3" format="ascii">
          5.00000000e-01 0.00000000e+00 0.00000000e+00 
6.66666687e-01 0.00000000e+00 0.00000000e+00 
8.33333313e-01 0.00000000e+00 0.00000000e+00 
1.00000000e+00 0.00000000e+00 0.00000000e+00 
5.00000000e-01 1.66666672e-01 0.00000000e+00 
6.66666687e-01 1.66666672e-01 0.00000000e+00 
8.33333313e-01 1.66666672e-01 0.00000000e+00 
1.00000000e+00 1.66666672e-01 0.00000000e+00 
5.00000000e-01 3.33333343e-01 0.00000000e+00 
6.66666687e-01 3.33333343e-01 0.00000000e+00 
8.33333313e-01 3.33333343e-01 0.00000000e+00 
1.00000000e+00 3.33333343e-01 0.00000000e+00 
5.00000000e-01 5.00000000e-01 0.00000000e+00 
6.66666687e-01 5.00000000e-01 0.00000000e+00 
8.33333313e-01 5.00000000e-01 0.00000000e+00 
1.00000000e+00 5.00000000e-01 0.00000000e+00 

        </DataArray>
      </Points>
      <Cells>
        <DataArray type="Int32" Name="connectivity" format="ascii">
0 1 5 4
4 5 9 8
8 9 13 12
1 2 6 5
5 6 10 9
9 10 14 13
2 3 7 6
6 7 11 10
10 11 15 14

        </DataArray>
        <DataArray type="Int32" Name="offsets" format="ascii">
4 8 12 16 20 24 28 32 36 
        </DataArray>
        <DataArray type="UInt8" Name="types" format="ascii">
9 9 9 9 9 9 9 9 9 
        </DataArray>
      </Cells>
      <PointData>
        <DataArray type="Float64" Name="rho">
          1.16086232e+00 1.16086232e+00 1.16086232e+00 1.16086232e+00 1.15993467e+00 1.15993467e+00 1.15993467e+00 1.15993467e+00 1.15937878e+00 1.15937878e+00 1.15937878e+00 1.15937878e+00 1.15919356e+00 1.15919356e+00 1.15919356e+00 1.15919356e+00 
        </DataArray>
        <DataArray type="Float64" Name="rhou">
          1.78525435e-06 1.78525420e-06 1.78525449e-06 1.78525516e-06 1.34252775e+01 1.34252775e+01 1.34252775e+01 1.34252775e+01 2.68376862e+01 2.68376862e+01 2.68376862e+01 2.68376862e+01 4.02501015e+01 4.02501015e+01 4.02501015e+01 4.02501015e+01 
        </DataArray>
        <DataArray type="Float64" Name="rhov">
          2.46455742e-11 2.44410036e-11 2.42740955e-11 2.44346869e-11 -5.72956670e-10 -5.72853754e-10 -5.72892531e-10 -5.72895623e-10 -8.17971876e-10 -8.18048934e-10 -8.18134989e-10 -8.18177440e-10 -8.26343255e-10 -8.26431664e-10 -8.26631364e-10 -8.26488547e-10 
        </DataArray>
        <DataArray type="Float64" Name="E">
          2.49999986e+05 2.49999986e+05 2.49999986e+05 2.49999986e+05 2.50077693e+05 2.50077693e+05 2.50077693e+05 2.50077693e+05 2.50310624e+05 2.50310624e+05 2.50310624e+05 2.50310624e+05 2.50698778e+05 2.50698778e+05 2.50698778e+05 2.50698778e+05 
        </DataArray>
        <DataArray type="Float64" Name="u">
          1.01758157e-10 1.01631494e-10 1.01881367e-10 1.02444275e-10 1.15741667e+01 1.15741667e+01 1.15741667e+01 1.15741667e+01 2.31483333e+01 2.31483333e+01 2.31483333e+01 2.31483333e+01 3.47225000e+01 3.47225000e+01 3.47225000e+01 3.47225000e+01 
        </DataArray>
        <DataArray type="Float64" Name="v">
          2.12631318e-11 2.10868438e-11 2.09430461e-11 2.10813900e-11 -4.93953675e-10 -4.93864961e-10 -4.93898393e-10 -4.93901060e-10 -7.05527501e-10 -7.05593956e-10 -7.05668180e-10 -7.05704793e-10 -7.12827707e-10 -7.12904040e-10 -7.13076333e-10 -7.12953124e-10 
        </DataArray>
        <DataArray type="Float64" Name="p">
          1.00000000e+05 1.00000000e+05 1.00000000e+05 1.00000000e+05 1.00000000e+05 1.00000000e+05 1.00000000e+05 1.00000000e+05 1.00000000e+05 1.00000000e+05 1.00000000e+05 1.00000000e+05 1.00000000e+05 1.00000000e+05 1.00000000e+05 1.00000000e+05 
        </DataArray>
        <DataArray type="Float64" Name="T">
          3.00000000e+02 3.00000000e+02 3.00000000e+02 3.00000000e+02 3.00239931e+02 3.00239931e+02 3.00239931e+02 3.00239931e+02 3.00383889e+02 3.00383889e+02 3.00383889e+02 3.00383889e+02 3.00431875e+02 3.00431875e+02 3.00431875e+02 3.00431875e+02 
        </DataArray>
        <DataArray type="Float64" Name="s">
          4.05166988e+03 4.05166988e+03 4.05166988e+03 4.05166988e+03 4.05247331e+03 4.05247331e+03 4.05247331e+03 4.05247331e+03 4.05295507e+03 4.05295507e+03 4.05295507e+03 4.05295507e+03 4.05311562e+03 4.05311562e+03 4.05311562e+03 4.05311562e+03 
        </DataArray>
        <DataArray type="Float64" Name="a">
          3.47275108e+02 3.47275108e+02 3.47275108e+02 3.47275108e+02 3.47413949e+02 3.47413949e+02 3.47413949e+02 3.47413949e+02 3.47497228e+02 3.47497228e+02 3.47497228e+02 3.47497228e+02 3.47524984e+02 3.47524984e+02 3.47524984e+02 3.47524984e+02 
        </DataArray>
        <DataArray type="Float64" Name="Mach">
          1.66169031e-09 1.66168989e-09 1.66169058e-09 1.66169228e-09 3.33152045e-02 3.33152045e-02 3.33152045e-02 3.33152045e-02 6.66144401e-02 6.66144401e-02 6.66144401e-02 6.66144401e-02 9.99136818e-02 9.99136818e-02 9.99136818e-02 9.99136818e-02 
        </DataArray>
        <DataArray type="Float64" Name="Sensor">
          -6.86125658e+00 -6.86125658e+00 -6.86125658e+00 -6.86125658e+00 -6.86125658e+00 -6.86125658e+00 -6.86125658e+00 -6.86125658e+00 -6.86125658e+00 -6.86125658e+00 -6.86125658e+00 -6.86125658e+00 -6.86125658e+00 -6.86125658e+00 -6.86125658e+00 -6.86125658e+00 
        </DataArray>
      </PointData>
    </Piece>
    <Piece NumberOfPoints="16" NumberOfCells="9">
      <Points>
        <DataArray type="Float64" NumberOfComponents="3" format="ascii">
          5.00000000e-01 5.00000000e-01 0.00000000e+00 
6.66666687e-01 5.00000000e-01 0.00000000e+00 
8.33333313e-01 5.00000000e-01 0.00000000e+00 
1.00000000e+00 5.00000000e-01 0.00000000e+00 
5.00000000e-01 6.66666687e-01 0.00000000e+00 
6.66666687e-01 6.66666687e-01 0.00000000e+00 
8.33333313e-01 6.66666687e-01 0.00000000e+00 
1.00000000e+00 6.66666687e-01 0.00000000e+00 
5.00000000e-01 8.33333313e-01 0.00000000e+00 
6.66666687e-01 8.33333313e-01 0.00000000e+00 
8.33333313e-01 8.33333313e-01 0.00000000e+00 
1.00000000e+00 8.33333313e-01 0.00000000e+00 
5.00000000e-01 1.00000000e+00 0.00000000e+00 
6.66666687e-01 1.00000000e+00 0.00000000e+00 
8.33333313e-01 1.00000000e+00 0.00000000e+00 
1.00000000e+00 1.00000000e+00 0.00000000e+00 

        </DataArray>
      </Points>
      <Cells>
        <DataArray type="Int32" Name="connectivity" format="ascii">
0 1 5 4
4 5 9 8
8 9 13 12
1 2 6 5
5 6 10 9
9 10 14 13
2 3 7 6
6 7 11 10
10 11 15 14

        </DataArray>
        <DataArray type="Int32" Name="offsets" format="ascii">
4 8 12 16 20 24 28 32 36 
        </DataArray>
        <DataArray type="UInt8" Name="types" format="ascii">
9 9 9 9 9 9 9 9 9 
        </DataArray>
      </Cells>
      <PointData>
        <DataArray type="Float64" Name="rho">
          1.15919356e+00 1.15919356e+00 1.15919356e+00 1.15919356e+00 1.15937878e+00 1.15937878e+00 1.15937878e+00 1.15937878e+00 1.15993467e+00 1.15993467e+00 1.15993467e+00 1.15993467e+00 1.16086232e+00 1.16086232e+00 1.16086232e+00 1.16086232e+00 
        </DataArray>
        <DataArray type="Float64" Name="rhou">
          4.02500955e+01 4.02500955e+01 4.02500955e+01 4.02500955e+01 5.36753730e+01 5.36753730e+01 5.36753730e+01 5.36753730e+01 6.71263860e+01 6.71263860e+01 6.71263860e+01 6.71263860e+01 8.06160821e+01 8.06160821e+01 8.06160821e+01 8.06160821e+01 
        </DataArray>
        <DataArray type="Float64" Name="rhov">
          -8.40905570e-10 -8.41705852e-10 -8.41653376e-10 -8.41771939e-10 -8.88814927e-10 -8.88781622e-10 -8.88748561e-10 -8.88607847e-10 -9.30492784e-10 -9.30356703e-10 -9.30272380e-10 -9.30356745e-10 -9.81497821e-10 -9.80982532e-10 -9.81513889e-10 -9.80985058e-10 
        </DataArray>
        <DataArray type="Float64" Name="E">
          2.50698777e+05 2.50698777e+05 2.50698777e+05 2.50698777e+05 2.51242495e+05 2.51242495e+05 2.51242495e+05 2.51242495e+05 2.51942330e+05 2.51942330e+05 2.51942330e+05 2.51942330e+05 2.52799177e+05 2.52799177e+05 2.52799177e+05 2.52799177e+05 
        </DataArray>
        <DataArray type="Float64" Name="u">
          3.47225000e+01 3.47225000e+01 3.47225000e+01 3.47225000e+01 4.62966667e+01 4.62966667e+01 4.62966667e+01 4.62966667e+01 5.78708333e+01 5.78708333e+01 5.78708333e+01 5.78708333e+01 6.94450000e+01 6.94450000e+01 6.94450000e+01 6.94450000e+01 
        </DataArray>
        <DataArray type="Float64" Name="v">
          -7.25424254e-10 -7.26114570e-10 -7.26069384e-10 -7.26171544e-10 -7.66630085e-10 -7.66601374e-10 -7.66572846e-10 -7.66451496e-10 -8.02194399e-10 -8.02077064e-10 -8.02004381e-10 -8.02077090e-10 -8.45491630e-10 -8.45047683e-10 -8.45505491e-10 -8.45049822e-10 
        </DataArray>
        <DataArray type="Float64" Name="p">
          1.00000000e+05 1.00000000e+05 1.00000000e+05 1.00000000e+05 1.00000000e+05 1.00000000e+05 1.00000000e+05 1.00000000e+05 1.00000000e+05 1.00000000e+05 1.00000000e+05 1.00000000e+05 1.00000000e+05 1.00000000e+05 1.00000000e+05 1.00000000e+05 
        </DataArray>
        <DataArray type="Float64" Name="T">
          3.00431875e+02 3.00431875e+02 3.00431875e+02 3.00431875e+02 3.00383889e+02 3.00383889e+02 3.00383889e+02 3.00383889e+02 3.00239931e+02 3.00239931e+02 3.00239931e+02 3.00239931e+02 3.00000000e+02 3.00000000e+02 3.00000000e+02 3.00000000e+02 
        </DataArray>
        <DataArray type="Float64" Name="s">
          4.05311562e+03 4.05311562e+03 4.05311562e+03 4.05311562e+03 4.05295507e+03 4.05295507e+03 4.05295507e+03 4.05295507e+03 4.05247331e+03 4.05247331e+03 4.05247331e+03 4.05247331e+03 4.05166988e+03 4.05166988e+03 4.05166988e+03 4.05166988e+03 
        </DataArray>
        <DataArray type="Float64" Name="a">
          3.47524984e+02 3.47524984e+02 3.47524984e+02 3.47524984e+02 3.47497228e+02 3.47497228e+02 3.47497228e+02 3.47497228e+02 3.47413949e+02 3.47413949e+02 3.47413949e+02 3.47413949e+02 3.47275108e+02 3.47275108e+02 3.47275108e+02 3.47275108e+02 
        </DataArray>
        <DataArray type="Float64" Name="Mach">
          9.99136762e-02 9.99136762e-02 9.99136762e-02 9.99136762e-02 1.33228881e-01 1.33228881e-01 1.33228881e-01 1.33228881e-01 1.66576021e-01 1.66576021e-01 1.66576021e-01 1.66576021e-01 1.99971139e-01 1.99971139e-01 1.99971139e-01 1.99971139e-01 
        </DataArray>
        <DataArray type="Float64" Name="Sensor">
          -6.86129634e+00 -6.86129634e+00 -6.86129634e+00 -6.86129634e+00 -6.86129634e+00 -6.86129634e+00 -6.86129634e+00 -6.86129634e+00 -6.86129634e+00 -6.86129634e+00 -6.86129634e+00 -6.86129634e+00 -6.86129634e+00 -6.86129634e+00 -6.86129634e+00 -6.86129634e+00 
        </DataArray>
      </PointData>
    </Piece>
    <Piece NumberOfPoints="16" NumberOfCells="9">
      <Points>
        <DataArray type="Float64" NumberOfComponents="3" format="ascii">
          -5.00000000e-01 0.00000000e+00 0.00000000e+00 
-3.33333343e-01 0.00000000e+00 0.00000000e+00 
-1.66666672e-01 0.00000000e+00 0.00000000e+00 
-2.08166817e-12 0.00000000e+00 0.00000000e+00 
-5.00000000e-01 1.66666672e-01 0.00000000e+00 
-3.33333343e-01 1.66666672e-01 0.00000000e+00 
-1.66666672e-01 1.66666672e-01 0.00000000e+00 
-1.38778800e-12 1.66666672e-01 0.00000000e+00 
-5.00000000e-01 3.33333343e-01 0.00000000e+00 
-3.33333343e-01 3.33333343e-01 0.00000000e+00 
-1.66666672e-01 3.33333343e-01 0.00000000e+00 
-6.93907876e-13 3.33333343e-01 0.00000000e+00 
-5.00000000e-01 5.00000000e-01 0.00000000e+00 
-3.33333343e-01 5.00000000e-01 0.00000000e+00 
-1.66666672e-01 5.00000000e-01 0.00000000e+00 
-2.77555789e-17 5.00000000e-01 0.00000000e+00 

        </DataArray>
      </Points>
      <Cells>
        <DataArray type="Int32" Name="connectivity" format="ascii">
0 1 5 4
4 5 9 8
8 9 13 12
1 2 6 5
5 6 10 9
9 10 14 13
2 3 7 6
6 7 11 10
10 11 15 14

        </DataArray>
        <DataArray type="Int32" Name="offsets" format="ascii">
4 8 12 16 20 24 28 32 36 
        </DataArray>
        <DataArray type="UInt8" Name="types" format="ascii">
9 9 9 9 9 9 9 9 9 
        </DataArray>
      </Cells>
      <PointData>
        <DataArray type="Float64" Name="rho">
          1.16086232e+00 1.16086232e+00 1.16086232e+00 1.16086232e+00 1.15993467e+00 1.15993467e+00 1.15993467e+00 1.15993467e+00 1.15937878e+00 1.15937878e+00 1.15937878e+00 1.15937878e+00 1.15919356e+00 1.15919356e+00 1.15919356e+00 1.15919356e+00 
        </DataArray>
        <DataArray type="Float64" Name="rhou">
          1.78525437e-06 1.78525408e-06 1.78525399e-06 1.78525447e-06 1.34252775e+01 1.34252775e+01 1.34252775e+01 1.34252775e+01 2.68376862e+01 2.68376862e+01 2.68376862e+01 2.68376862e+01 4.02501015e+01 4.02501015e+01 4.02501015e+01 4.02501015e+01 
        </DataArray>
        <DataArray type="Float64" Name="rhov">
          2.44049253e-11 2.43519494e-11 2.45545585e-11 2.44836847e-11 -5.72957354e-10 -5.72686248e-10 -5.72871513e-10 -5.73045313e-10 -8.18304128e-10 -8.18008075e-10 -8.17803479e-10 -8.17844292e-10 -8.26519831e-10 -8.26109893e-10 -8.26049512e-10 -8.25750599e-10 
        </DataArray>
        <DataArray type="Float64" Name="E">
          2.49999986e+05 2.49999986e+05 2.49999986e+05 2.49999986e+05 2.50077693e+05 2.50077693e+05 2.50077693e+05 2.50077693e+05 2.50310624e+05 2.50310624e+05 2.50310624e+05 2.50310624e+05 2.50698778e+05 2.50698778e+05 2.50698778e+05 2.50698778e+05 
        </DataArray>
        <DataArray type="Float64" Name="u">
          1.01787467e-10 1.01513877e-10 1.01460403e-10 1.01850972e-10 1.15741667e+01 1.15741667e+01 1.15741667e+01 1.15741667e+01 2.31483333e+01 2.31483333e+01 2.31483333e+01 2.31483333e+01 3.47225000e+01 3.47225000e+01 3.47225000e+01 3.47225000e+01 
        </DataArray>
        <DataArray type="Float64" Name="v">
          2.10557421e-11 2.10100679e-11 2.11847155e-11 2.11236827e-11 -4.93954283e-10 -4.93720565e-10 -4.93880262e-10 -4.94030097e-10 -7.05814063e-10 -7.05558702e-10 -7.05382251e-10 -7.05417454e-10 -7.12980121e-10 -7.12626520e-10 -7.12574317e-10 -7.12316434e-10 
        </DataArray>
        <DataArray type="Float64" Name="p">
          1.00000000e+05 1.00000000e+05 1.00000000e+05 1.00000000e+05 1.00000000e+05 1.00000000e+05 1.00000000e+05 1.00000000e+05 1.00000000e+05 1.00000000e+05 1.00000000e+05 1.00000000e+05 1.00000000e+05 1.00000000e+05 1.00000000e+05 1.00000000e+05 
        </DataArray>
        <DataArray type="Float64" Name="T">
          3.00000000e+02 3.00000000e+02 3.00000000e+02 3.00000000e+02 3.00239931e+02 3.00239931e+02 3.00239931e+02 3.00239931e+02 3.00383889e+02 3.00383889e+02 3.00383889e+02 3.00383889e+02 3.00431875e+02 3.00431875e+02 3.00431875e+02 3.00431875e+02 
        </DataArray>
        <DataArray type="Float64" Name="s">
          4.05166988e+03 4.05166988e+03 4.05166988e+03 4.05166988e+03 4.05247331e+03 4.05247331e+03 4.05247331e+03 4.05247331e+03 4.05295507e+03 4.05295507e+03 4.05295507e+03 4.05295507e+03 4.05311562e+03 4.05311562e+03 4.05311562e+03 4.05311562e+03 
        </DataArray>
        <DataArray type="Float64" Name="a">
          3.47275108e+02 3.47275108e+02 3.47275108e+02 3.47275108e+02 3.47413949e+02 3.47413949e+02 3.47413949e+02 3.47413949e+02 3.47497228e+02 3.47497228e+02 3.47497228e+02 3.47497228e+02 3.47524984e+02 3.47524984e+02 3.47524984e+02 3.47524984e+02 
        </DataArray>
        <DataArray type="Float64" Name="Mach">
          1.66169033e-09 1.66168955e-09 1.66168942e-09 1.66169056e-09 3.33152045e-02 3.33152045e-02 3.33152045e-02 3.33152045e-02 6.66144401e-02 6.66144401e-02 6.66144401e-02 6.66144401e-02 9.99136818e-02 9.99136818e-02 9.99136818e-02 9.99136818e-02 
        </DataArray>
        <DataArray type="Float64" Name="Sensor">
          -6.86125658e+00 -6.86125658e+00 -6.86125658e+00 -6.86125658e+00 -6.86125658e+00 -6.86125658e+00 -6.86125658e+00 -6.86125658e+00 -6.86125658e+00 -6.86125658e+00 -6.86125658e+00 -6.86125658e+00 -6.86125658e+00 -6.86125658e+00 -6.86125658e+00 -6.86125658e+00 
        </DataArray>
      </PointData>
    </Piece>
    <Piece NumberOfPoints="16" NumberOfCells="9">
      <Points>
        <DataArray type="Float64" NumberOfComponents="3" format="ascii">
          -5.00000000e-01 5.00000000e-01 0.00000000e+00 
-3.33333343e-01 5.00000000e-01 0.00000000e+00 
-1.66666672e-01 5.00000000e-01 0.00000000e+00 
-2.77555789e-17 5.00000000e-01 0.00000000e+00 
-5.00000000e-01 6.66666687e-01 0.00000000e+00 
-3.33333343e-01 6.66666687e-01 0.00000000e+00 
-1.66666672e-01 6.66666687e-01 0.00000000e+00 
6.93870905e-13 6.66666687e-01 0.00000000e+00 
-5.00000000e-01 8.33333313e-01 0.00000000e+00 
-3.33333343e-01 8.33333313e-01 0.00000000e+00 
-1.66666672e-01 8.33333313e-01 0.00000000e+00 
1.38776957e-12 8.33333313e-01 0.00000000e+00 
-5.00000000e-01 1.00000000e+00 0.00000000e+00 
-3.33333343e-01 1.00000000e+00 0.00000000e+00 
-1.66666672e-01 1.00000000e+00 0.00000000e+00 
2.08166817e-12 1.00000000e+00 0.00000000e+00 

        </DataArray>
      </Points>
      <Cells>
        <DataArray type="Int32" Name="connectivity" format="ascii">
0 1 5 4
4 5 9 8
8 9 13 12
1 2 6 5
5 6 10 9
9 10 14 13
2 3 7 6
6 7 11 10
10 11 15 14

        </DataArray>
        <DataArray type="Int32" Name="offsets" format="ascii">
4 8 12 16 20 24 28 32 36 
        </DataArray>
        <DataArray type="UInt8" Name="types" format="ascii">
9 9 9 9 9 9 9 9 9 
        </DataArray>
      </Cells>
      <PointData>
        <DataArray type="Float64" Name="rho">
          1.15919356e+00 1.15919356e+00 1.15919356e+00 1.15919356e+00 1.15937878e+00 1.15937878e+00 1.15937878e+00 1.15937878e+00 1.15993467e+00 1.15993467e+00 1.15993467e+00 1.15993467e+00 1.16086232e+00 1.16086232e+00 1.16086232e+00 1.16086232e+00 
        </DataArray>
        <DataArray type="Float64" Name="rhou">
          4.02500955e+01 4.02500955e+01 4.02500955e+01 4.02500955e+01 5.36753730e+01 5.36753730e+01 5.36753730e+01 5.36753730e+01 6.71263860e+01 6.71263860e+01 6.71263860e+01 6.71263860e+01 8.06160821e+01 8.06160821e+01 8.06160821e+01 8.06160821e+01 
        </DataArray>
        <DataArray type="Float64" Name="rhov">
          -8.41099868e-10 -8.41395691e-10 -8.40967023e-10 -8.41134204e-10 -8.89052104e-10 -8.88602007e-10 -8.88678598e-10 -8.88805689e-10 -9.30321463e-10 -9.30337433e-10 -9.30390166e-10 -9.30480297e-10 -9.81885859e-10 -9.80859921e-10 -9.81305125e-10 -9.81033316e-10 
        </DataArray>
        <DataArray type="Float64" Name="E">
          2.50698777e+05 2.50698777e+05 2.50698777e+05 2.50698777e+05 2.51242495e+05 2.51242495e+05 2.51242495e+05 2.51242495e+05 2.51942330e+05 2.51942330e+05 2.51942330e+05 2.51942330e+05 2.52799177e+05 2.52799177e+05 2.52799177e+05 2.52799177e+05 
        </DataArray>
        <DataArray type="Float64" Name="u">
          3.47225000e+01 3.47225000e+01 3.47225000e+01 3.47225000e+01 4.62966667e+01 4.62966667e+01 4.62966667e+01 4.62966667e+01 5.78708333e+01 5.78708333e+01 5.78708333e+01 5.78708333e+01 6.94450000e+01 6.94450000e+01 6.94450000e+01 6.94450000e+01 
        </DataArray>
        <DataArray type="Float64" Name="v">
          -7.25592003e-10 -7.25846971e-10 -7.25477243e-10 -7.25621426e-10 -7.66834635e-10 -7.66446455e-10 -7.66512502e-10 -7.66622127e-10 -8.02046725e-10 -8.02060446e-10 -8.02105924e-10 -8.02183622e-10 -8.45826030e-10 -8.44942029e-10 -8.45325612e-10 -8.45091428e-10 
        </DataArray>
        <DataArray type="Float64" Name="p">
          1.00000000e+05 1.00000000e+05 1.00000000e+05 1.00000000e+05 1.00000000e+05 1.00000000e+05 1.00000000e+05 1.00000000e+05 1.00000000e+05 1.00000000e+05 1.00000000e+05 1.00000000e+05 1.00000000e+05 1.00000000e+05 1.00000000e+05 1.00000000e+05 
        </DataArray>