<?xml version="1.0"?>
<VTKFile type="UnstructuredGrid" version="0.1" byte_order="LittleEndian">
  <UnstructuredGrid>
    <Piece NumberOfPoints="3" NumberOfCells="2">
      <Points>
        <DataArray type="Float64" NumberOfComponents="3" format="ascii">
          0.00000000e+00 0.00000000e+00 0.00000000e+00 
3.12500000e-02 0.00000000e+00 0.00000000e+00 
6.25000000e-02 0.00000000e+00 0.00000000e+00 

        </DataArray>
      </Points>
      <Cells>
        <DataArray type="Int32" Name="connectivity" format="ascii">
0 1
1 2

        </DataArray>
        <DataArray type="Int32" Name="offsets" format="ascii">
2 4 
        </DataArray>
        <DataArray type="UInt8" Name="types" format="ascii">
3 3 
        </DataArray>
      </Cells>
      <PointData>
        <DataArray type="Float64" Name="rho">
          9.99261646e-01 9.99160455e-01 9.99051094e-01 
        </DataArray>
        <DataArray type="Float64" Name="rhou">
          2.46003486e-04 2.78648030e-04 3.15197576e-04 
        </DataArray>
        <DataArray type="Float64" Name="E">
          9.98770014e-02 9.98606740e-02 9.98424040e-02 
        </DataArray>
        <DataArray type="Float64" Name="u">
          2.46185397e-04 2.78882163e-04 3.15496814e-04 
        </DataArray>
        <DataArray type="Float64" Name="p">
          6.65846474e-02 6.65737567e-02 6.65615695e-02 
        </DataArray>
        <DataArray type="Float64" Name="T">
          2.32126771e-04 2.32112310e-04 2.32095222e-04 
        </DataArray>
        <DataArray type="Float64" Name="s">
          -3.60303769e+03 -3.60303545e+03 -3.60303573e+03 
        </DataArray>
        <DataArray type="Float64" Name="a">
          3.33251273e-01 3.33240892e-01 3.33228626e-01 
        </DataArray>
        <DataArray type="Float64" Name="Mach">
          7.38738251e-04 8.36878571e-04 9.46787652e-04 
        </DataArray>
        <DataArray type="Float64" Name="Sensor">
          -5.70653218e+00 -5.70653218e+00 -5.70653218e+00 
        </DataArray>
        <DataArray type="Float64" Name="ArtificialVisc">
          0.00000000e+00 0.00000000e+00 0.00000000e+00 
        </DataArray>
      </PointData>
    </Piece>
    <Piece NumberOfPoints="3" NumberOfCells="2">
      <Points>
        <DataArray type="Float64" NumberOfComponents="3" format="ascii">
          6.25000000e-02 0.00000000e+00 0.00000000e+00 
9.37500000e-02 0.00000000e+00 0.00000000e+00 
1.25000000e-01 0.00000000e+00 0.00000000e+00 

        </DataArray>
      </Points>
      <Cells>
        <DataArray type="Int32" Name="connectivity" format="ascii">
0 1
1 2

        </DataArray>
        <DataArray type="Int32" Name="offsets" format="ascii">
2 4 
        </DataArray>
        <DataArray type="UInt8" Name="types" format="ascii">
3 3 
        </DataArray>
      </Cells>
      <PointData>
        <DataArray type="Float64" Name="rho">
          9.99050983e-01 9.98924703e-01 9.98784059e-01 
        </DataArray>
        <DataArray type="Float64" Name="rhou">
          3.15235860e-04 3.56966627e-04 4.03671873e-04 
        </DataArray>
        <DataArray type="Float64" Name="E">
          9.98423856e-02 9.98215142e-02 9.97981673e-02 
        </DataArray>
        <DataArray type="Float64" Name="u">
          3.15535570e-04 3.57350881e-04 4.04163051e-04 
        </DataArray>
        <DataArray type="Float64" Name="p">
          6.65615572e-02 6.65476336e-02 6.65320572e-02 
        </DataArray>
        <DataArray type="Float64" Name="T">
          2.32095205e-04 2.32075988e-04 2.32054340e-04 
        </DataArray>
        <DataArray type="Float64" Name="s">
          -3.60303573e+03 -3.60303509e+03 -3.60303484e+03 
        </DataArray>
        <DataArray type="Float64" Name="a">
          3.33228613e-01 3.33214818e-01 3.33199277e-01 
        </DataArray>
        <DataArray type="Float64" Name="Mach">
          9.46904460e-04 1.07243394e-03 1.21297671e-03 
        </DataArray>
        <DataArray type="Float64" Name="Sensor">
          -5.46139388e+00 -5.46139388e+00 -5.46139388e+00 
        </DataArray>
        <DataArray type="Float64" Name="ArtificialVisc">
          0.00000000e+00 0.00000000e+00 0.00000000e+00 
        </DataArray>
      </PointData>
    </Piece>
    <Piece NumberOfPoints="3" NumberOfCells="2">
      <Points>
        <DataArray type="Float64" NumberOfComponents="3" format="ascii">
          1.25000000e-01 0.00000000e+00 0.00000000e+00 
1.56250000e-01 0.00000000e+00 0.00000000e+00 
1.87500000e-01 0.00000000e+00 0.00000000e+00 

        </DataArray>
      </Points>
      <Cells>
        <DataArray type="Int32" Name="connectivity" format="ascii">
0 1
1 2

        </DataArray>
        <DataArray type="Int32" Name="offsets" format="ascii">
2 4 
        </DataArray>
        <DataArray type="UInt8" Name="types" format="ascii">
3 3 
        </DataArray>
      </Cells>
      <PointData>
        <DataArray type="Float64" Name="rho">
          9.98783919e-01 9.98623130e-01 9.98443435e-01 
        </DataArray>
        <DataArray type="Float64" Name="rhou">
          4.03720116e-04 4.57006336e-04 5.16606093e-04 
        </DataArray>
        <DataArray type="Float64" Name="E">
          9.97981442e-02 9.97714935e-02 9.97417008e-02 
        </DataArray>
        <DataArray type="Float64" Name="u">
          4.04212101e-04 4.57636436e-04 5.17411046e-04 
        </DataArray>
        <DataArray type="Float64" Name="p">
          6.65320417e-02 6.65142593e-02 6.64943781e-02 
        </DataArray>
        <DataArray type="Float64" Name="T">
          2.32054318e-04 2.32029649e-04 2.32002043e-04 
        </DataArray>
        <DataArray type="Float64" Name="s">
          -3.60303484e+03 -3.60303440e+03 -3.60303398e+03 
        </DataArray>
        <DataArray type="Float64" Name="a">
          3.33199261e-01 3.33181550e-01 3.33161728e-01 
        </DataArray>
        <DataArray type="Float64" Name="Mach">
          1.21312467e-03 1.37353474e-03 1.55303223e-03 
        </DataArray>
        <DataArray type="Float64" Name="Sensor">
          -5.34193821e+00 -5.34193821e+00 -5.34193821e+00 
        </DataArray>
        <DataArray type="Float64" Name="ArtificialVisc">
          0.00000000e+00 0.00000000e+00 0.00000000e+00 
        </DataArray>
      </PointData>
    </Piece>
    <Piece NumberOfPoints="3" NumberOfCells="2">
      <Points>
        <DataArray type="Float64" NumberOfComponents="3" format="ascii">
          1.87500000e-01 0.00000000e+00 0.00000000e+00 
2.18750000e-01 0.00000000e+00 0.00000000e+00 
2.50000000e-01 0.00000000e+00 0.00000000e+00 

        </DataArray>
      </Points>
      <Cells>
        <DataArray type="Int32" Name="connectivity" format="ascii">
0 1
1 2

        </DataArray>
        <DataArray type="Int32" Name="offsets" format="ascii">
2 4 
        </DataArray>
        <DataArray type="UInt8" Name="types" format="ascii">
3 3 
        </DataArray>
      </Cells>
      <PointData>
        <DataArray type="Float64" Name="rho">
          9.98443258e-01 9.98238239e-01 9.98009170e-01 
        </DataArray>
        <DataArray type="Float64" Name="rhou">
          5.16667205e-04 5.84606404e-04 6.60531184e-04 
        </DataArray>
        <DataArray type="Float64" Name="E">
          9.97416714e-02 9.97076923e-02 9.96697388e-02 
        </DataArray>
        <DataArray type="Float64" Name="u">
          5.17473475e-04 5.85638148e-04 6.61848115e-04 
        </DataArray>
        <DataArray type="Float64" Name="p">
          6.64943584e-02 6.64716808e-02 6.64463469e-02 
        </DataArray>
        <DataArray type="Float64" Name="T">
          2.32002015e-04 2.31970524e-04 2.31935338e-04 
        </DataArray>
        <DataArray type="Float64" Name="s">
          -3.60303398e+03 -3.60303348e+03 -3.60303291e+03 
        </DataArray>
        <DataArray type="Float64" Name="a">
          3.33161708e-01 3.33139097e-01 3.33113830e-01 
        </DataArray>
        <DataArray type="Float64" Name="Mach">
          1.55322083e-03 1.75793880e-03 1.98685201e-03 
        </DataArray>
        <DataArray type="Float64" Name="Sensor">
          -5.23723497e+00 -5.23723497e+00 -5.23723497e+00 
        </DataArray>
        <DataArray type="Float64" Name="ArtificialVisc">
          0.00000000e+00 0.00000000e+00 0.00000000e+00 
        </DataArray>
      </PointData>
    </Piece>
    <Piece NumberOfPoints="3" NumberOfCells="2">
      <Points>
        <DataArray type="Float64" NumberOfComponents="3" format="ascii">
          2.50000000e-01 0.00000000e+00 0.00000000e+00 
2.81250000e-01 0.00000000e+00 0.00000000e+00 
3.12500000e-01 0.00000000e+00 0.00000000e+00 

        </DataArray>
      </Points>
      <Cells>
        <DataArray type="Int32" Name="connectivity" format="ascii">
0 1
1 2

        </DataArray>
        <DataArray type="Int32" Name="offsets" format="ascii">
2 4 
        </DataArray>
        <DataArray type="UInt8" Name="types" format="ascii">
3 3 
        </DataArray>
      </Cells>
      <PointData>
        <DataArray type="Float64" Name="rho">
          9.98008945e-01 9.97747902e-01 9.97456492e-01 
        </DataArray>
        <DataArray type="Float64" Name="rhou">
          6.60608383e-04 7.47062716e-04 8.43577844e-04 
        </DataArray>
        <DataArray type="Float64" Name="E">
          9.96697018e-02 9.96264624e-02 9.95782158e-02 
        </DataArray>
        <DataArray type="Float64" Name="u">
          6.61927437e-04 7.48748956e-04 8.45727840e-04 
        </DataArray>
        <DataArray type="Float64" Name="p">
          6.64463220e-02 6.64174551e-02 6.63852395e-02 
        </DataArray>
        <DataArray type="Float64" Name="T">
          2.31935302e-04 2.31895197e-04 2.31850433e-04 
        </DataArray>
        <DataArray type="Float64" Name="s">
          -3.60303292e+03 -3.60303228e+03 -3.60303156e+03 
        </DataArray>
        <DataArray type="Float64" Name="a">
          3.33113804e-01 3.33085003e-01 3.33052853e-01 
        </DataArray>
        <DataArray type="Float64" Name="Mach">
          1.98709210e-03 2.24792154e-03 2.53931910e-03 
        </DataArray>
        <DataArray type="Float64" Name="Sensor">
          -5.13575262e+00 -5.13575262e+00 -5.13575262e+00 
        </DataArray>
        <DataArray type="Float64" Name="ArtificialVisc">
          0.00000000e+00 0.00000000e+00 0.00000000e+00 
        </DataArray>
      </PointData>
    </Piece>
    <Piece NumberOfPoints="3" NumberOfCells="2">
      <Points>
        <DataArray type="Float64" NumberOfComponents="3" format="ascii">
          3.12500000e-01 0.00000000e+00 0.00000000e+00 
3.43750000e-01 0.00000000e+00 0.00000000e+00 
3.75000000e-01 0.00000000e+00 0.00000000e+00 

        </DataArray>
      </Points>
      <Cells>
        <DataArray type="Int32" Name="connectivity" format="ascii">
0 1
1 2

        </DataArray>
        <DataArray type="Int32" Name="offsets" format="ascii">
2 4 
        </DataArray>
        <DataArray type="UInt8" Name="types" format="ascii">
3 3 
        </DataArray>
      </Cells>
      <PointData>
        <DataArray type="Float64" Name="rho">
          9.97456210e-01 9.97124571e-01 9.96754777e-01 
        </DataArray>
        <DataArray type="Float64" Name="rhou">
          8.43674675e-04 9.53422441e-04 1.07578356e-03 
        </DataArray>
        <DataArray type="Float64" Name="E">
          9.95781693e-02 9.95232801e-02 9.94621123e-02 
        </DataArray>
        <DataArray type="Float64" Name="u">
          8.45828071e-04 9.56171820e-04 1.07928429e-03 
        </DataArray>
        <DataArray type="Float64" Name="p">
          6.63852081e-02 6.63485495e-02 6.63076881e-02 
        </DataArray>
        <DataArray type="Float64" Name="T">
          2.31850388e-04 2.31799428e-04 2.31742617e-04 
        </DataArray>
        <DataArray type="Float64" Name="s">
          -3.60303156e+03 -3.60303075e+03 -3.60302982e+03 
        </DataArray>
        <DataArray type="Float64" Name="a">
          3.33052820e-01 3.33016216e-01 3.32975405e-01 
        </DataArray>
        <DataArray type="Float64" Name="Mach">
          2.53962319e-03 2.87124700e-03 3.24133158e-03 
        </DataArray>
        <DataArray type="Float64" Name="Sensor">
          -5.03631280e+00 -5.03631280e+00 -5.03631280e+00 
        </DataArray>
        <DataArray type="Float64" Name="ArtificialVisc">
          0.00000000e+00 0.00000000e+00 0.00000000e+00 
        </DataArray>
      </PointData>
    </Piece>
    <Piece NumberOfPoints="3" NumberOfCells="2">
      <Points>
        <DataArray type="Float64" NumberOfComponents="3" format="ascii">
          3.75000000e-01 0.00000000e+00 0.00000000e+00 
4.06250000e-01 0.00000000e+00 0.00000000e+00 
4.37500000e-01 0.00000000e+00 0.00000000e+00 

        </DataArray>
      </Points>
      <Cells>
        <DataArray type="Int32" Name="connectivity" format="ascii">
0 1
1 2

        </DataArray>
        <DataArray type="Int32" Name="offsets" format="ascii">
2 4 
        </DataArray>
        <DataArray type="UInt8" Name="types" format="ascii">
3 3 
        </DataArray>
      </Cells>
      <PointData>
        <DataArray type="Float64" Name="rho">
          9.96754425e-01 9.96334288e-01 9.95866477e-01 
        </DataArray>
        <DataArray type="Float64" Name="rhou">
          1.07590391e-03 1.21479653e-03 1.36940780e-03 
        </DataArray>
        <DataArray type="Float64" Name="E">
          9.94620545e-02 9.93925891e-02 9.93152988e-02 
        </DataArray>
        <DataArray type="Float64" Name="u">
          1.07941005e-03 1.21926597e-03 1.37508894e-03 
        </DataArray>
        <DataArray type="Float64" Name="p">
          6.63076489e-02 6.62612323e-02 6.62095718e-02 
        </DataArray>
        <DataArray type="Float64" Name="T">
          2.31742560e-04 2.31677990e-04 2.31606111e-04 
        </DataArray>
        <DataArray type="Float64" Name="s">
          -3.60302983e+03 -3.60302879e+03 -3.60302759e+03 
        </DataArray>
        <DataArray type="Float64" Name="a">
          3.32975364e-01 3.32928973e-01 3.32877322e-01 
        </DataArray>
        <DataArray type="Float64" Name="Mach">
          3.24171427e-03 3.66224046e-03 4.13091523e-03 
        </DataArray>
        <DataArray type="Float64" Name="Sensor">
          -4.93922789e+00 -4.93922789e+00 -4.93922789e+00 
        </DataArray>
        <DataArray type="Float64" Name="ArtificialVisc">
          0.00000000e+00 0.00000000e+00 0.00000000e+00 
        </DataArray>
      </PointData>
    </Piece>
    <Piece NumberOfPoints="3" NumberOfCells="2">
      <Points>
        <DataArray type="Float64" NumberOfComponents="3" format="ascii">
          4.37500000e-01 0.00000000e+00 0.00000000e+00 
4.68750000e-01 0.00000000e+00 0.00000000e+00 
5.00000000e-01 0.00000000e+00 0.00000000e+00 

        </DataArray>
      </Points>
      <Cells>
        <DataArray type="Int32" Name="connectivity" format="ascii">
0 1
1 2

        </DataArray>
        <DataArray type="Int32" Name="offsets" format="ascii">
2 4 
        </DataArray>
        <DataArray type="UInt8" Name="types" format="ascii">
3 3 
        </DataArray>
      </Cells>
      <PointData>
        <DataArray type="Float64" Name="rho">
          9.95866044e-01 9.95335661e-01 9.94746119e-01 
        </DataArray>
        <DataArray type="Float64" Name="rhou">
          1.36955588e-03 1.54466629e-03 1.73921968e-03 
        </DataArray>
        <DataArray type="Float64" Name="E">
          9.93152277e-02 9.92276474e-02 9.91303893e-02 
        </DataArray>
        <DataArray type="Float64" Name="u">
          1.37524552e-03 1.55190484e-03 1.74840115e-03 
        </DataArray>
        <DataArray type="Float64" Name="p">
          6.62095235e-02 6.61509659e-02 6.60859131e-02 
        </DataArray>
        <DataArray type="Float64" Name="T">
          2.31606039e-04 2.31524509e-04 2.31433909e-04 
        </DataArray>
        <DataArray type="Float64" Name="s">
          -3.60302760e+03 -3.60302628e+03 -3.60302473e+03 
        </DataArray>
        <DataArray type="Float64" Name="a">
          3.32877270e-01 3.32818675e-01 3.32753550e-01 
        </DataArray>
        <DataArray type="Float64" Name="Mach">
          4.13139351e-03 4.66291388e-03 5.25433816e-03 
        </DataArray>
        <DataArray type="Float64" Name="Sensor">
          -4.84506536e+00 -4.84506536e+00 -4.84506536e+00 
        </DataArray>
        <DataArray type="Float64" Name="ArtificialVisc">
          0.00000000e+00 0.00000000e+00 0.00000000e+00 
        </DataArray>
      </PointData>
    </Piece>
    <Piece NumberOfPoints="3" NumberOfCells="2">
      <Points>
        <DataArray type="Float64" NumberOfComponents="3" format="ascii">
          5.00000000e-01 0.00000000e+00 0.00000000e+00 
5.31250000e-01 0.00000000e+00 0.00000000e+00 
5.62500000e-01 0.00000000e+00 0.00000000e+00 

        </DataArray>
      </Points>
      <Cells>
        <DataArray type="Int32" Name="connectivity" format="ascii">
0 1
1 2

        </DataArray>
        <DataArray type="Int32" Name="offsets" format="ascii">
2 4 
        </DataArray>
        <DataArray type="UInt8" Name="types" format="ascii">
3 3 
        </DataArray>
      </Cells>
      <PointData>
        <DataArray type="Float64" Name="rho">
          9.94745592e-01 9.94078930e-01 9.93339470e-01 
        </DataArray>
        <DataArray type="Float64" Name="rhou">
          1.73939956e-03 1.95914202e-03 2.20270943e-03 
        </DataArray>
        <DataArray type="Float64" Name="E">
          9.91303029e-02 9.90203988e-02 9.88986351e-02 
        </DataArray>
        <DataArray type="Float64" Name="u">
          1.74859424e-03 1.97081124e-03 2.21747213e-03 
        </DataArray>
        <DataArray type="Float64" Name="p">
          6.60858540e-02 6.60123121e-02 6.59307960e-02 
        </DataArray>
        <DataArray type="Float64" Name="T">
          2.31433819e-04 2.31331312e-04 2.31217647e-04 
        </DataArray>
        <DataArray type="Float64" Name="s">
          -3.60302475e+03 -3.60302306e+03 -3.60302107e+03 
        </DataArray>
        <DataArray type="Float64" Name="a">
          3.32753485e-01 3.32679785e-01 3.32598045e-01 
        </DataArray>
        <DataArray type="Float64" Name="Mach">
          5.25493077e-03 5.92404858e-03 6.66711632e-03 
        </DataArray>
        <DataArray type="Float64" Name="Sensor">
          -4.75441661e+00 -4.75441661e+00 -4.75441661e+00 
        </DataArray>
        <DataArray type="Float64" Name="ArtificialVisc">
          0.00000000e+00 0.00000000e+00 0.00000000e+00 
        </DataArray>
      </PointData>
    </Piece>
    <Piece NumberOfPoints="3" NumberOfCells="2">
      <Points>
        <DataArray type="Float64" NumberOfComponents="3" format="ascii">
          5.62500000e-01 0.00000000e+00 0.00000000e+00 
5.93750000e-01 0.00000000e+00 0.00000000e+00 
6.25000000e-01 0.00000000e+00 0.00000000e+00 

        </DataArray>
      </Points>
      <Cells>
        <DataArray type="Int32" Name="connectivity" format="ascii">
0 1
1 2

        </DataArray>
        <DataArray type="Int32" Name="offsets" format="ascii">
2 4 
        </DataArray>
        <DataArray type="UInt8" Name="types" format="ascii">
3 3 
        </DataArray>
      </Cells>
      <PointData>
        <DataArray type="Float64" Name="rho">
          9.93338839e-01 9.92505303e-01 9.91583093e-01 
        </DataArray>
        <DataArray type="Float64" Name="rhou">
          2.20292444e-03 2.47710695e-03 2.78015261e-03 
        </DataArray>
        <DataArray type="Float64" Name="E">
          9.88985318e-02 9.87613986e-02 9.86098957e-02 
        </DataArray>
        <DataArray type="Float64" Name="u">
          2.21770739e-03 2.49581217e-03 2.80374102e-03 
        </DataArray>
        <DataArray type="Float64" Name="p">
          6.59307249e-02 6.58388716e-02 6.57373333e-02 
        </DataArray>
        <DataArray type="Float64" Name="T">
          2.31217537e-04 2.31089328e-04 2.30947531e-04 
        </DataArray>
        <DataArray type="Float64" Name="s">
          -3.60302109e+03 -3.60301894e+03 -3.60301638e+03 
        </DataArray>
        <DataArray type="Float64" Name="a">
          3.32597964e-01 3.32505740e-01 3.32403712e-01 
        </DataArray>
        <DataArray type="Float64" Name="Mach">
          6.66784264e-03 7.50607229e-03 8.43473596e-03 
        </DataArray>
        <DataArray type="Float64" Name="Sensor">
          -4.66804608e+00 -4.66804608e+00 -4.66804608e+00 
        </DataArray>
        <DataArray type="Float64" Name="ArtificialVisc">
          0.00000000e+00 0.00000000e+00 0.00000000e+00 
        </DataArray>
      </PointData>
    </Piece>
    <Piece NumberOfPoints="3" NumberOfCells="2">
      <Points>
        <DataArray type="Float64" NumberOfComponents="3" format="ascii">
          6.25000000e-01 0.00000000e+00 0.00000000e+00 
6.56250000e-01 0.00000000e+00 0.00000000e+00 
6.87500000e-01 0.00000000e+00 0.00000000e+00 

        </DataArray>
      </Points>
      <Cells>
        <DataArray type="Int32" Name="connectivity" format="ascii">
0 1
1 2

        </DataArray>
        <DataArray type="Int32" Name="offsets" format="ascii">
2 4 
        </DataArray>
        <DataArray type="UInt8" Name="types" format="ascii">
3 3 
        </DataArray>
      </Cells>
      <PointData>
        <DataArray type="Float64" Name="rho">
          9.91582350e-01 9.90546774e-01 9.89404514e-01 
        </DataArray>
        <DataArray type="Float64" Name="rhou">
          2.78040499e-03 3.12016521e-03 3.49442377e-03 
        </DataArray>
        <DataArray type="Float64" Name="E">
          9.86097746e-02 9.84398375e-02 9.82527276e-02 
        </DataArray>
        <DataArray type="Float64" Name="u">
          2.80402391e-03 3.14994212e-03 3.53182965e-03 
        </DataArray>
        <DataArray type="Float64" Name="p">
          6.57372492e-02 6.56232822e-02 6.54977062e-02 
        </DataArray>
        <DataArray type="Float64" Name="T">
          2.30947397e-04 2.30788044e-04 2.30612350e-04 
        </DataArray>
        <DataArray type="Float64" Name="s">
          -3.60301641e+03 -3.60301367e+03 -3.60301038e+03 
        </DataArray>
        <DataArray type="Float64" Name="a">
          3.32403614e-01 3.32288916e-01 3.32162411e-01 
        </DataArray>
        <DataArray type="Float64" Name="Mach">
          8.43561574e-03 9.47952788e-03 1.06328239e-02 
        </DataArray>
        <DataArray type="Float64" Name="Sensor">
          -4.58688062e+00 -4.58688062e+00 -4.58688062e+00 
        </DataArray>
        <DataArray type="Float64" Name="ArtificialVisc">
          0.00000000e+00 0.00000000e+00 0.00000000e+00 
        </DataArray>
      </PointData>
    </Piece>
    <Piece NumberOfPoints="3" NumberOfCells="2">
      <Points>
        <DataArray type="Float64" NumberOfComponents="3" format="ascii">
          6.87500000e-01 0.00000000e+00 0.00000000e+00 
7.18750000e-01 0.00000000e+00 0.00000000e+00 
7.50000000e-01 0.00000000e+00 0.00000000e+00 

        </DataArray>
      </Points>
      <Cells>
        <DataArray type="Int32" Name="connectivity" format="ascii">
0 1
1 2

        </DataArray>
        <DataArray type="Int32" Name="offsets" format="ascii">
2 4 
        </DataArray>
        <DataArray type="UInt8" Name="types" format="ascii">
3 3 
        </DataArray>
      </Cells>
      <PointData>
        <DataArray type="Float64" Name="rho">
          9.89403659e-01 9.88126745e-01 9.86723305e-01 
        </DataArray>
        <DataArray type="Float64" Name="rhou">
          3.49471372e-03 3.91230186e-03 4.37046365e-03 
        </DataArray>
        <DataArray type="Float64" Name="E">
          9.82525890e-02 9.80437135e-02 9.78146433e-02 
        </DataArray>
        <DataArray type="Float64" Name="u">
          3.53216459e-03 3.95931149e-03 4.42924662e-03 
        </DataArray>
        <DataArray type="Float64" Name="p">
          6.54976089e-02 6.53573124e-02 6.52033120e-02 
        </DataArray>
        <DataArray type="Float64" Name="T">
          2.30612189e-04 2.30415598e-04 2.30199638e-04 
        </DataArray>
        <DataArray type="Float64" Name="s">
          -3.60301042e+03 -3.60300693e+03 -3.60300270e+03 
        </DataArray>
        <DataArray type="Float64" Name="a">
          3.32162293e-01 3.32020684e-01 3.31865053e-01 
        </DataArray>
        <DataArray type="Float64" Name="Mach">
          1.06338750e-02 1.19248937e-02 1.33465062e-02 
        </DataArray>
        <DataArray type="Float64" Name="Sensor">
          -4.51173567e+00 -4.51173567e+00 -4.51173567e+00 
        </DataArray>
        <DataArray type="Float64" Name="ArtificialVisc">
          0.00000000e+00 0.00000000e+00 0.00000000e+00 
        </DataArray>
      </PointData>
    </Piece>
    <Piece NumberOfPoints="3" NumberOfCells="2">
      <Points>
        <DataArray type="Float64" NumberOfComponents="3" format="ascii">
          7.50000000e-01 0.00000000e+00 0.00000000e+00 
7.81250000e-01 0.00000000e+00 0.00000000e+00 
8.12500000e-01 0.00000000e+00 0.00000000e+00 

        </DataArray>
      </Points>
      <Cells>
        <DataArray type="Int32" Name="connectivity" format="ascii">
0 1
1 2

        </DataArray>
        <DataArray type="Int32" Name="offsets" format="ascii">
2 4 
        </DataArray>
        <DataArray type="UInt8" Name="types" format="ascii">
3 3 
        </DataArray>
      </Cells>
      <PointData>
        <DataArray type="Float64" Name="rho">
          9.86722347e-01 9.85161676e-01 9.83453378e-01 
        </DataArray>
        <DataArray type="Float64" Name="rhou">
          4.37078763e-03 4.87914930e-03 5.43433677e-03 
        </DataArray>
        <DataArray type="Float64" Name="E">
          9.78144888e-02 9.75601949e-02 9.72825885e-02 
        </DataArray>
        <DataArray type="Float64" Name="u">
          4.42963541e-03 4.95263774e-03 5.52573655e-03 
        </DataArray>
        <DataArray type="Float64" Name="p">
          6.52032020e-02 6.50320751e-02 6.48450529e-02 
        </DataArray>
        <DataArray type="Float64" Name="T">
          2.30199447e-04 2.29959020e-04 2.29696007e-04 
        </DataArray>
        <DataArray type="Float64" Name="s">
          -3.60300277e+03 -3.60299834e+03 -3.60299290e+03 
        </DataArray>
        <DataArray type="Float64" Name="a">
          3.31864913e-01 3.31691564e-01 3.31501828e-01 
        </DataArray>
        <DataArray type="Float64" Name="Mach">
          1.33477397e-02 1.49314547e-02 1.66687636e-02 
        </DataArray>
        <DataArray type="Float64" Name="Sensor">
          -4.44343972e+00 -4.44343972e+00 -4.44343972e+00 
        </DataArray>
        <DataArray type="Float64" Name="ArtificialVisc">
          0.00000000e+00 0.00000000e+00 0.00000000e+00 
        </DataArray>
      </PointData>
    </Piece>
    <Piece NumberOfPoints="3" NumberOfCells="2">
      <Points>
        <DataArray type="Float64" NumberOfComponents="3" format="ascii">
          8.12500000e-01 0.00000000e+00 0.00000000e+00 
8.43750000e-01 0.00000000e+00 0.00000000e+00 
8.75000000e-01 0.00000000e+00 0.00000000e+00 

        </DataArray>
      </Points>
      <Cells>
        <DataArray type="Int32" Name="connectivity" format="ascii">
0 1
1 2

        </DataArray>
        <DataArray type="Int32" Name="offsets" format="ascii">
2 4 
        </DataArray>
        <DataArray type="UInt8" Name="types" format="ascii">
3 3 
        </DataArray>
      </Cells>
      <PointData>
        <DataArray type="Float64" Name="rho">
          9.83452337e-01 9.81563962e-01 9.79506531e-01 
        </DataArray>
        <DataArray type="Float64" Name="rhou">
          5.43468741e-03 6.04679869e-03 6.71182286e-03 
        </DataArray>
        <DataArray type="Float64" Name="E">
          9.72824219e-02 9.69762010e-02 9.66436395e-02 
        </DataArray>
        <DataArray type="Float64" Name="u">
          5.52617801e-03 6.16037098e-03 6.85220323e-03 
        </DataArray>
        <DataArray type="Float64" Name="p">
          6.48449321e-02 6.46383839e-02 6.44137675e-02 
        </DataArray>
        <DataArray type="Float64" Name="T">
          2.29695787e-04 2.29404657e-04 2.29087689e-04 
        </DataArray>
        <DataArray type="Float64" Name="s">
          -3.60299300e+03 -3.60298738e+03 -3.60298042e+03 
        </DataArray>
        <DataArray type="Float64" Name="a">
          3.31501665e-01 3.31291518e-01 3.31062569e-01 
        </DataArray>
        <DataArray type="Float64" Name="Mach">
          1.66701832e-02 1.85950150e-02 2.06975617e-02 
        </DataArray>
        <DataArray type="Float64" Name="Sensor">
          -4.38298242e+00 -4.38298242e+00 -4.38298242e+00 
        </DataArray>
        <DataArray type="Float64" Name="ArtificialVisc">
          0.00000000e+00 0.00000000e+00 0.00000000e+00 
        </DataArray>
      </PointData>
    </Piece>
    <Piece NumberOfPoints="3" NumberOfCells="2">
      <Points>
        <DataArray type="Float64" NumberOfComponents="3" format="ascii">
          8.75000000e-01 0.00000000e+00 0.00000000e+00 
9.06250000e-01 0.00000000e+00 0.00000000e+00 
9.37500000e-01 0.00000000e+00 0.00000000e+00 

        </DataArray>
      </Points>
      <Cells>
        <DataArray type="Int32" Name="connectivity" format="ascii">
0 1
1 2

        </DataArray>
        <DataArray type="Int32" Name="offsets" format="ascii">
2 4 
        </DataArray>
        <DataArray type="UInt8" Name="types" format="ascii">
3 3 
        </DataArray>
      </Cells>
      <PointData>
        <DataArray type="Float64" Name="rho">
          9.79505443e-01 9.77246121e-01 9.74797095e-01 
        </DataArray>
        <DataArray type="Float64" Name="rhou">
          6.71218891e-03 7.44019640e-03 8.22659784e-03 
        </DataArray>
        <DataArray type="Float64" Name="E">
          9.66434673e-02 9.62792073e-02 9.58858823e-02 
        </DataArray>
        <DataArray type="Float64" Name="u">
          6.85269271e-03 7.61343078e-03 8.43923040e-03 
        </DataArray>
        <DataArray type="Float64" Name="p">
          6.44136396e-02 6.41672564e-02 6.39007858e-02 
        </DataArray>
        <DataArray type="Float64" Name="T">