<?xml version="1.0"?>
<VTKFile type="UnstructuredGrid" version="0.1" byte_order="LittleEndian">
  <UnstructuredGrid>
    <Piece NumberOfPoints="16" NumberOfCells="9">
      <Points>
        <DataArray type="Float64" NumberOfComponents="3" format="ascii">
          0.00000000e+00 -1.00000001e-01 0.00000000e+00 
8.33333377e-03 -1.00000001e-01 0.00000000e+00 
1.66666675e-02 -1.00000001e-01 0.00000000e+00 
2.50000004e-02 -1.00000001e-01 0.00000000e+00 
0.00000000e+00 -7.77777806e-02 0.00000000e+00 
5.55555569e-03 -7.77777806e-02 0.00000000e+00 
1.11111114e-02 -7.77777806e-02 0.00000000e+00 
1.66666675e-02 -7.77777806e-02 0.00000000e+00 
0.00000000e+00 -5.55555560e-02 0.00000000e+00 
2.77777785e-03 -5.55555560e-02 0.00000000e+00 
5.55555569e-03 -5.55555560e-02 0.00000000e+00 
8.33333377e-03 -5.55555560e-02 0.00000000e+00 
0.00000000e+00 -3.33333351e-02 0.00000000e+00 
0.00000000e+00 -3.33333351e-02 0.00000000e+00 
0.00000000e+00 -3.33333351e-02 0.00000000e+00 
0.00000000e+00 -3.33333351e-02 0.00000000e+00 

        </DataArray>
      </Points>
      <Cells>
        <DataArray type="Int32" Name="connectivity" format="ascii">
0 1 5 4
4 5 9 8
8 9 13 12
1 2 6 5
5 6 10 9
9 10 14 13
2 3 7 6
6 7 11 10
10 11 15 14

        </DataArray>
        <DataArray type="Int32" Name="offsets" format="ascii">
4 8 12 16 20 24 28 32 36 
        </DataArray>
        <DataArray type="UInt8" Name="types" format="ascii">
9 9 9 9 9 9 9 9 9 
        </DataArray>
      </Cells>
      <PointData>
        <DataArray type="Float64" Name="rho">
          1.20000000e+00 1.20000000e+00 1.20000000e+00 1.20000000e+00 1.20000000e+00 1.20000000e+00 1.20000000e+00 1.20000000e+00 1.20000000e+00 1.20000000e+00 1.20000000e+00 1.20000000e+00 1.20000000e+00 1.20000000e+00 1.20000000e+00 1.20000000e+00 
        </DataArray>
        <DataArray type="Float64" Name="rhou">
          3.32221864e+03 3.32221864e+03 3.32221864e+03 3.32221864e+03 3.32221864e+03 3.32221864e+03 3.32221864e+03 3.32221864e+03 3.32221864e+03 3.32221864e+03 3.32221864e+03 3.32221864e+03 3.32221864e+03 3.32221864e+03 3.32221864e+03 3.32221864e+03 
        </DataArray>
        <DataArray type="Float64" Name="rhov">
          0.00000000e+00 0.00000000e+00 0.00000000e+00 0.00000000e+00 0.00000000e+00 0.00000000e+00 0.00000000e+00 0.00000000e+00 0.00000000e+00 0.00000000e+00 0.00000000e+00 0.00000000e+00 0.00000000e+00 0.00000000e+00 0.00000000e+00 0.00000000e+00 
        </DataArray>
        <DataArray type="Float64" Name="E">
          4.85543680e+06 4.85543680e+06 4.85543680e+06 4.85543680e+06 4.85543680e+06 4.85543680e+06 4.85543680e+06 4.85543680e+06 4.85543680e+06 4.85543680e+06 4.85543680e+06 4.85543680e+06 4.85543680e+06 4.85543680e+06 4.85543680e+06 4.85543680e+06 
        </DataArray>
        <DataArray type="Float64" Name="u">
          2.76851553e+03 2.76851553e+03 2.76851553e+03 2.76851553e+03 2.76851553e+03 2.76851553e+03 2.76851553e+03 2.76851553e+03 2.76851553e+03 2.76851553e+03 2.76851553e+03 2.76851553e+03 2.76851553e+03 2.76851553e+03 2.76851553e+03 2.76851553e+03 
        </DataArray>
        <DataArray type="Float64" Name="v">
          0.00000000e+00 0.00000000e+00 0.00000000e+00 0.00000000e+00 0.00000000e+00 0.00000000e+00 0.00000000e+00 0.00000000e+00 0.00000000e+00 0.00000000e+00 0.00000000e+00 0.00000000e+00 0.00000000e+00 0.00000000e+00 0.00000000e+00 0.00000000e+00 
        </DataArray>
        <DataArray type="Float64" Name="p">
          1.02651941e+05 1.02651941e+05 1.02651941e+05 1.02651941e+05 1.02651941e+05 1.02651941e+05 1.02651941e+05 1.02651941e+05 1.02651941e+05 1.02651941e+05 1.02651941e+05 1.02651941e+05 1.02651941e+05 1.02651941e+05 1.02651941e+05 1.02651941e+05 
        </DataArray>
        <DataArray type="Float64" Name="T">
          2.98000000e+02 2.98000000e+02 2.98000000e+02 2.98000000e+02 2.98000000e+02 2.98000000e+02 2.98000000e+02 2.98000000e+02 2.98000000e+02 2.98000000e+02 2.98000000e+02 2.98000000e+02 2.98000000e+02 2.98000000e+02 2.98000000e+02 2.98000000e+02 
        </DataArray>
        <DataArray type="Float64" Name="s">
          4.03615379e+03 4.03615379e+03 4.03615379e+03 4.03615379e+03 4.03615379e+03 4.03615379e+03 4.03615379e+03 4.03615379e+03 4.03615379e+03 4.03615379e+03 4.03615379e+03 4.03615379e+03 4.03615379e+03 4.03615379e+03 4.03615379e+03 4.03615379e+03 
        </DataArray>
        <DataArray type="Float64" Name="a">
          3.46064441e+02 3.46064441e+02 3.46064441e+02 3.46064441e+02 3.46064441e+02 3.46064441e+02 3.46064441e+02 3.46064441e+02 3.46064441e+02 3.46064441e+02 3.46064441e+02 3.46064441e+02 3.46064441e+02 3.46064441e+02 3.46064441e+02 3.46064441e+02 
        </DataArray>
        <DataArray type="Float64" Name="Mach">
          8.00000000e+00 8.00000000e+00 8.00000000e+00 8.00000000e+00 8.00000000e+00 8.00000000e+00 8.00000000e+00 8.00000000e+00 8.00000000e+00 8.00000000e+00 8.00000000e+00 8.00000000e+00 8.00000000e+00 8.00000000e+00 8.00000000e+00 8.00000000e+00 
        </DataArray>
        <DataArray type="Float64" Name="Sensor">
          -1.40075010e+01 -1.40075010e+01 -1.40075010e+01 -1.40075010e+01 -1.40075010e+01 -1.40075010e+01 -1.40075010e+01 -1.40075010e+01 -1.40075010e+01 -1.40075010e+01 -1.40075010e+01 -1.40075010e+01 -1.40075010e+01 -1.40075010e+01 -1.40075010e+01 -1.40075010e+01 
        </DataArray>
        <DataArray type="Float64" Name="ArtificialVisc">
          0.00000000e+00 0.00000000e+00 0.00000000e+00 0.00000000e+00 0.00000000e+00 0.00000000e+00 0.00000000e+00 0.00000000e+00 0.00000000e+00 0.00000000e+00 0.00000000e+00 0.00000000e+00 0.00000000e+00 0.00000000e+00 0.00000000e+00 0.00000000e+00 
        </DataArray>
      </PointData>
    </Piece>
    <Piece NumberOfPoints="16" NumberOfCells="9">
      <Points>
        <DataArray type="Float64" NumberOfComponents="3" format="ascii">
          0.00000000e+00 -3.33333351e-02 0.00000000e+00 
8.33333377e-03 -5.55555560e-02 0.00000000e+00 
1.66666675e-02 -7.77777806e-02 0.00000000e+00 
2.50000004e-02 -1.00000001e-01 0.00000000e+00 
8.33333377e-03 -3.33333351e-02 0.00000000e+00 
1.38888890e-02 -4.81481478e-02 0.00000000e+00 
1.94444451e-02 -6.29629642e-02 0.00000000e+00 
2.50000004e-02 -7.77777806e-02 0.00000000e+00 
1.66666675e-02 -3.33333351e-02 0.00000000e+00 
1.94444451e-02 -4.07407396e-02 0.00000000e+00 
2.22222228e-02 -4.81481478e-02 0.00000000e+00 
2.50000004e-02 -5.55555560e-02 0.00000000e+00 
2.50000004e-02 -3.33333351e-02 0.00000000e+00 
2.50000004e-02 -3.33333351e-02 0.00000000e+00 
2.50000004e-02 -3.33333351e-02 0.00000000e+00 
2.50000004e-02 -3.33333351e-02 0.00000000e+00 

        </DataArray>
      </Points>
      <Cells>
        <DataArray type="Int32" Name="connectivity" format="ascii">
0 1 5 4
4 5 9 8
8 9 13 12
1 2 6 5
5 6 10 9
9 10 14 13
2 3 7 6
6 7 11 10
10 11 15 14

        </DataArray>
        <DataArray type="Int32" Name="offsets" format="ascii">
4 8 12 16 20 24 28 32 36 
        </DataArray>
        <DataArray type="UInt8" Name="types" format="ascii">
9 9 9 9 9 9 9 9 9 
        </DataArray>
      </Cells>
      <PointData>
        <DataArray type="Float64" Name="rho">
          1.20000000e+00 1.20000000e+00 1.20000000e+00 1.20000000e+00 1.20000000e+00 1.20000000e+00 1.20000000e+00 1.20000000e+00 1.20000000e+00 1.20000000e+00 1.20000000e+00 1.20000000e+00 1.20000000e+00 1.20000000e+00 1.20000000e+00 1.20000000e+00 
        </DataArray>
        <DataArray type="Float64" Name="rhou">
          3.32221864e+03 3.32221864e+03 3.32221864e+03 3.32221864e+03 3.32221864e+03 3.32221864e+03 3.32221864e+03 3.32221864e+03 3.32221864e+03 3.32221864e+03 3.32221864e+03 3.32221864e+03 3.32221864e+03 3.32221864e+03 3.32221864e+03 3.32221864e+03 
        </DataArray>
        <DataArray type="Float64" Name="rhov">
          0.00000000e+00 0.00000000e+00 0.00000000e+00 0.00000000e+00 0.00000000e+00 0.00000000e+00 0.00000000e+00 0.00000000e+00 0.00000000e+00 0.00000000e+00 0.00000000e+00 0.00000000e+00 0.00000000e+00 0.00000000e+00 0.00000000e+00 0.00000000e+00 
        </DataArray>
        <DataArray type="Float64" Name="E">
          4.85543680e+06 4.85543680e+06 4.85543680e+06 4.85543680e+06 4.85543680e+06 4.85543680e+06 4.85543680e+06 4.85543680e+06 4.85543680e+06 4.85543680e+06 4.85543680e+06 4.85543680e+06 4.85543680e+06 4.85543680e+06 4.85543680e+06 4.85543680e+06 
        </DataArray>
        <DataArray type="Float64" Name="u">
          2.76851553e+03 2.76851553e+03 2.76851553e+03 2.76851553e+03 2.76851553e+03 2.76851553e+03 2.76851553e+03 2.76851553e+03 2.76851553e+03 2.76851553e+03 2.76851553e+03 2.76851553e+03 2.76851553e+03 2.76851553e+03 2.76851553e+03 2.76851553e+03 
        </DataArray>
        <DataArray type="Float64" Name="v">
          0.00000000e+00 0.00000000e+00 0.00000000e+00 0.00000000e+00 0.00000000e+00 0.00000000e+00 0.00000000e+00 0.00000000e+00 0.00000000e+00 0.00000000e+00 0.00000000e+00 0.00000000e+00 0.00000000e+00 0.00000000e+00 0.00000000e+00 0.00000000e+00 
        </DataArray>
        <DataArray type="Float64" Name="p">
          1.02651941e+05 1.02651941e+05 1.02651941e+05 1.02651941e+05 1.02651941e+05 1.02651941e+05 1.02651941e+05 1.02651941e+05 1.02651941e+05 1.02651941e+05 1.02651941e+05 1.02651941e+05 1.02651941e+05 1.02651941e+05 1.02651941e+05 1.02651941e+05 
        </DataArray>
        <DataArray type="Float64" Name="T">
          2.98000000e+02 2.98000000e+02 2.98000000e+02 2.98000000e+02 2.98000000e+02 2.98000000e+02 2.98000000e+02 2.98000000e+02 2.98000000e+02 2.98000000e+02 2.98000000e+02 2.98000000e+02 2.98000000e+02 2.98000000e+02 2.98000000e+02 2.98000000e+02 
        </DataArray>
        <DataArray type="Float64" Name="s">
          4.03615379e+03 4.03615379e+03 4.03615379e+03 4.03615379e+03 4.03615379e+03 4.03615379e+03 4.03615379e+03 4.03615379e+03 4.03615379e+03 4.03615379e+03 4.03615379e+03 4.03615379e+03 4.03615379e+03 4.03615379e+03 4.03615379e+03 4.03615379e+03 
        </DataArray>
        <DataArray type="Float64" Name="a">
          3.46064441e+02 3.46064441e+02 3.46064441e+02 3.46064441e+02 3.46064441e+02 3.46064441e+02 3.46064441e+02 3.46064441e+02 3.46064441e+02 3.46064441e+02 3.46064441e+02 3.46064441e+02 3.46064441e+02 3.46064441e+02 3.46064441e+02 3.46064441e+02 
        </DataArray>
        <DataArray type="Float64" Name="Mach">
          8.00000000e+00 8.00000000e+00 8.00000000e+00 8.00000000e+00 8.00000000e+00 8.00000000e+00 8.00000000e+00 8.00000000e+00 8.00000000e+00 8.00000000e+00 8.00000000e+00 8.00000000e+00 8.00000000e+00 8.00000000e+00 8.00000000e+00 8.00000000e+00 
        </DataArray>
        <DataArray type="Float64" Name="Sensor">
          -1.42037939e+01 -1.42037939e+01 -1.42037939e+01 -1.42037939e+01 -1.42037939e+01 -1.42037939e+01 -1.42037939e+01 -1.42037939e+01 -1.42037939e+01 -1.42037939e+01 -1.42037939e+01 -1.42037939e+01 -1.42037939e+01 -1.42037939e+01 -1.42037939e+01 -1.42037939e+01 
        </DataArray>
        <DataArray type="Float64" Name="ArtificialVisc">
          0.00000000e+00 0.00000000e+00 0.00000000e+00 0.00000000e+00 0.00000000e+00 0.00000000e+00 0.00000000e+00 0.00000000e+00 0.00000000e+00 0.00000000e+00 0.00000000e+00 0.00000000e+00 0.00000000e+00 0.00000000e+00 0.00000000e+00 0.00000000e+00 
        </DataArray>
      </PointData>
    </Piece>
    <Piece NumberOfPoints="16" NumberOfCells="9">
      <Points>
        <DataArray type="Float64" NumberOfComponents="3" format="ascii">
          0.00000000e+00 -3.33333351e-02 0.00000000e+00 
8.33333377e-03 -3.33333351e-02 0.00000000e+00 
1.66666675e-02 -3.33333351e-02 0.00000000e+00 
2.50000004e-02 -3.33333351e-02 0.00000000e+00 
0.00000000e+00 -1.11111114e-02 0.00000000e+00 
5.55555569e-03 -1.11111114e-02 0.00000000e+00 
1.11111114e-02 -1.11111114e-02 0.00000000e+00 
1.66666675e-02 -1.11111114e-02 0.00000000e+00 
0.00000000e+00 1.11111114e-02 0.00000000e+00 
2.77777785e-03 1.11111114e-02 0.00000000e+00 
5.55555569e-03 1.11111114e-02 0.00000000e+00 
8.33333377e-03 1.11111114e-02 0.00000000e+00 
0.00000000e+00 3.33333351e-02 0.00000000e+00 
0.00000000e+00 3.33333351e-02 0.00000000e+00 
0.00000000e+00 3.33333351e-02 0.00000000e+00 
0.00000000e+00 3.33333351e-02 0.00000000e+00 

        </DataArray>
      </Points>
      <Cells>
        <DataArray type="Int32" Name="connectivity" format="ascii">
0 1 5 4
4 5 9 8
8 9 13 12
1 2 6 5
5 6 10 9
9 10 14 13
2 3 7 6
6 7 11 10
10 11 15 14

        </DataArray>
        <DataArray type="Int32" Name="offsets" format="ascii">
4 8 12 16 20 24 28 32 36 
        </DataArray>
        <DataArray type="UInt8" Name="types" format="ascii">
9 9 9 9 9 9 9 9 9 
        </DataArray>
      </Cells>
      <PointData>
        <DataArray type="Float64" Name="rho">
          1.20000000e+00 1.20000000e+00 1.20000000e+00 1.20000000e+00 1.20000000e+00 1.20000000e+00 1.20000000e+00 1.20000000e+00 1.20000000e+00 1.20000000e+00 1.20000000e+00 1.20000000e+00 1.20000000e+00 1.20000000e+00 1.20000000e+00 1.20000000e+00 
        </DataArray>
        <DataArray type="Float64" Name="rhou">
          3.32221864e+03 3.32221864e+03 3.32221864e+03 3.32221864e+03 3.32221864e+03 3.32221864e+03 3.32221864e+03 3.32221864e+03 3.32221864e+03 3.32221864e+03 3.32221864e+03 3.32221864e+03 3.32221864e+03 3.32221864e+03 3.32221864e+03 3.32221864e+03 
        </DataArray>
        <DataArray type="Float64" Name="rhov">
          0.00000000e+00 0.00000000e+00 0.00000000e+00 0.00000000e+00 0.00000000e+00 0.00000000e+00 0.00000000e+00 0.00000000e+00 0.00000000e+00 0.00000000e+00 0.00000000e+00 0.00000000e+00 0.00000000e+00 0.00000000e+00 0.00000000e+00 0.00000000e+00 
        </DataArray>
        <DataArray type="Float64" Name="E">
          4.85543680e+06 4.85543680e+06 4.85543680e+06 4.85543680e+06 4.85543680e+06 4.85543680e+06 4.85543680e+06 4.85543680e+06 4.85543680e+06 4.85543680e+06 4.85543680e+06 4.85543680e+06 4.85543680e+06 4.85543680e+06 4.85543680e+06 4.85543680e+06 
        </DataArray>
        <DataArray type="Float64" Name="u">
          2.76851553e+03 2.76851553e+03 2.76851553e+03 2.76851553e+03 2.76851553e+03 2.76851553e+03 2.76851553e+03 2.76851553e+03 2.76851553e+03 2.76851553e+03 2.76851553e+03 2.76851553e+03 2.76851553e+03 2.76851553e+03 2.76851553e+03 2.76851553e+03 
        </DataArray>
        <DataArray type="Float64" Name="v">
          0.00000000e+00 0.00000000e+00 0.00000000e+00 0.00000000e+00 0.00000000e+00 0.00000000e+00 0.00000000e+00 0.00000000e+00 0.00000000e+00 0.00000000e+00 0.00000000e+00 0.00000000e+00 0.00000000e+00 0.00000000e+00 0.00000000e+00 0.00000000e+00 
        </DataArray>
        <DataArray type="Float64" Name="p">
          1.02651941e+05 1.02651941e+05 1.02651941e+05 1.02651941e+05 1.02651941e+05 1.02651941e+05 1.02651941e+05 1.02651941e+05 1.02651941e+05 1.02651941e+05 1.02651941e+05 1.02651941e+05 1.02651941e+05 1.02651941e+05 1.02651941e+05 1.02651941e+05 
        </DataArray>
        <DataArray type="Float64" Name="T">
          2.98000000e+02 2.98000000e+02 2.98000000e+02 2.98000000e+02 2.98000000e+02 2.98000000e+02 2.98000000e+02 2.98000000e+02 2.98000000e+02 2.98000000e+02 2.98000000e+02 2.98000000e+02 2.98000000e+02 2.98000000e+02 2.98000000e+02 2.98000000e+02 
        </DataArray>
        <DataArray type="Float64" Name="s">
          4.03615379e+03 4.03615379e+03 4.03615379e+03 4.03615379e+03 4.03615379e+03 4.03615379e+03 4.03615379e+03 4.03615379e+03 4.03615379e+03 4.03615379e+03 4.03615379e+03 4.03615379e+03 4.03615379e+03 4.03615379e+03 4.03615379e+03 4.03615379e+03 
        </DataArray>
        <DataArray type="Float64" Name="a">
          3.46064441e+02 3.46064441e+02 3.46064441e+02 3.46064441e+02 3.46064441e+02 3.46064441e+02 3.46064441e+02 3.46064441e+02 3.46064441e+02 3.46064441e+02 3.46064441e+02 3.46064441e+02 3.46064441e+02 3.46064441e+02 3.46064441e+02 3.46064441e+02 
        </DataArray>
        <DataArray type="Float64" Name="Mach">
          8.00000000e+00 8.00000000e+00 8.00000000e+00 8.00000000e+00 8.00000000e+00 8.00000000e+00 8.00000000e+00 8.00000000e+00 8.00000000e+00 8.00000000e+00 8.00000000e+00 8.00000000e+00 8.00000000e+00 8.00000000e+00 8.00000000e+00 8.00000000e+00 
        </DataArray>
        <DataArray type="Float64" Name="Sensor">
          -1.41004974e+01 -1.41004974e+01 -1.41004974e+01 -1.41004974e+01 -1.41004974e+01 -1.41004974e+01 -1.41004974e+01 -1.41004974e+01 -1.41004974e+01 -1.41004974e+01 -1.41004974e+01 -1.41004974e+01 -1.41004974e+01 -1.41004974e+01 -1.41004974e+01 -1.41004974e+01 
        </DataArray>
        <DataArray type="Float64" Name="ArtificialVisc">
          0.00000000e+00 0.00000000e+00 0.00000000e+00 0.00000000e+00 0.00000000e+00 0.00000000e+00 0.00000000e+00 0.00000000e+00 0.00000000e+00 0.00000000e+00 0.00000000e+00 0.00000000e+00 0.00000000e+00 0.00000000e+00 0.00000000e+00 0.00000000e+00 
        </DataArray>
      </PointData>
    </Piece>
    <Piece NumberOfPoints="16" NumberOfCells="9">
      <Points>
        <DataArray type="Float64" NumberOfComponents="3" format="ascii">
          0.00000000e+00 3.33333351e-02 0.00000000e+00 
8.33333377e-03 1.11111114e-02 0.00000000e+00 
1.66666675e-02 -1.11111114e-02 0.00000000e+00 
2.50000004e-02 -3.33333351e-02 0.00000000e+00 
8.33333377e-03 3.33333351e-02 0.00000000e+00 
1.38888890e-02 1.85185187e-02 0.00000000e+00 
1.94444451e-02 3.70370364e-03 0.00000000e+00 
2.50000004e-02 -1.11111114e-02 0.00000000e+00 
1.66666675e-02 3.33333351e-02 0.00000000e+00 
1.94444451e-02 2.59259250e-02 0.00000000e+00 
2.22222228e-02 1.85185187e-02 0.00000000e+00 
2.50000004e-02 1.11111114e-02 0.00000000e+00 
2.50000004e-02 3.33333351e-02 0.00000000e+00 
2.50000004e-02 3.33333351e-02 0.00000000e+00 
2.50000004e-02 3.33333351e-02 0.00000000e+00 
2.50000004e-02 3.33333351e-02 0.00000000e+00 

        </DataArray>
      </Points>
      <Cells>
        <DataArray type="Int32" Name="connectivity" format="ascii">
0 1 5 4
4 5 9 8
8 9 13 12
1 2 6 5
5 6 10 9
9 10 14 13
2 3 7 6
6 7 11 10
10 11 15 14

        </DataArray>
        <DataArray type="Int32" Name="offsets" format="ascii">
4 8 12 16 20 24 28 32 36 
        </DataArray>
        <DataArray type="UInt8" Name="types" format="ascii">
9 9 9 9 9 9 9 9 9 
        </DataArray>
      </Cells>
      <PointData>
        <DataArray type="Float64" Name="rho">
          1.20000000e+00 1.20000000e+00 1.20000000e+00 1.20000000e+00 1.20000000e+00 1.20000000e+00 1.20000000e+00 1.20000000e+00 1.20000000e+00 1.20000000e+00 1.20000000e+00 1.20000000e+00 1.20000000e+00 1.20000000e+00 1.20000000e+00 1.20000000e+00 
        </DataArray>
        <DataArray type="Float64" Name="rhou">
          3.32221864e+03 3.32221864e+03 3.32221864e+03 3.32221864e+03 3.32221864e+03 3.32221864e+03 3.32221864e+03 3.32221864e+03 3.32221864e+03 3.32221864e+03 3.32221864e+03 3.32221864e+03 3.32221864e+03 3.32221864e+03 3.32221864e+03 3.32221864e+03 
        </DataArray>
        <DataArray type="Float64" Name="rhov">
          0.00000000e+00 0.00000000e+00 0.00000000e+00 0.00000000e+00 0.00000000e+00 0.00000000e+00 0.00000000e+00 0.00000000e+00 0.00000000e+00 0.00000000e+00 0.00000000e+00 0.00000000e+00 0.00000000e+00 0.00000000e+00 0.00000000e+00 0.00000000e+00 
        </DataArray>
        <DataArray type="Float64" Name="E">
          4.85543680e+06 4.85543680e+06 4.85543680e+06 4.85543680e+06 4.85543680e+06 4.85543680e+06 4.85543680e+06 4.85543680e+06 4.85543680e+06 4.85543680e+06 4.85543680e+06 4.85543680e+06 4.85543680e+06 4.85543680e+06 4.85543680e+06 4.85543680e+06 
        </DataArray>
        <DataArray type="Float64" Name="u">
          2.76851553e+03 2.76851553e+03 2.76851553e+03 2.76851553e+03 2.76851553e+03 2.76851553e+03 2.76851553e+03 2.76851553e+03 2.76851553e+03 2.76851553e+03 2.76851553e+03 2.76851553e+03 2.76851553e+03 2.76851553e+03 2.76851553e+03 2.76851553e+03 
        </DataArray>
        <DataArray type="Float64" Name="v">
          0.00000000e+00 0.00000000e+00 0.00000000e+00 0.00000000e+00 0.00000000e+00 0.00000000e+00 0.00000000e+00 0.00000000e+00 0.00000000e+00 0.00000000e+00 0.00000000e+00 0.00000000e+00 0.00000000e+00 0.00000000e+00 0.00000000e+00 0.00000000e+00 
        </DataArray>
        <DataArray type="Float64" Name="p">
          1.02651941e+05 1.02651941e+05 1.02651941e+05 1.02651941e+05 1.02651941e+05 1.02651941e+05 1.02651941e+05 1.02651941e+05 1.02651941e+05 1.02651941e+05 1.02651941e+05 1.02651941e+05 1.02651941e+05 1.02651941e+05 1.02651941e+05 1.02651941e+05 
        </DataArray>
        <DataArray type="Float64" Name="T">
          2.98000000e+02 2.98000000e+02 2.98000000e+02 2.98000000e+02 2.98000000e+02 2.98000000e+02 2.98000000e+02 2.98000000e+02 2.98000000e+02 2.98000000e+02 2.98000000e+02 2.98000000e+02 2.98000000e+02 2.98000000e+02 2.98000000e+02 2.98000000e+02 
        </DataArray>
        <DataArray type="Float64" Name="s">
          4.03615379e+03 4.03615379e+03 4.03615379e+03 4.03615379e+03 4.03615379e+03 4.03615379e+03 4.03615379e+03 4.03615379e+03 4.03615379e+03 4.03615379e+03 4.03615379e+03 4.03615379e+03 4.03615379e+03 4.03615379e+03 4.03615379e+03 4.03615379e+03 
        </DataArray>
        <DataArray type="Float64" Name="a">
          3.46064441e+02 3.46064441e+02 3.46064441e+02 3.46064441e+02 3.46064441e+02 3.46064441e+02 3.46064441e+02 3.46064441e+02 3.46064441e+02 3.46064441e+02 3.46064441e+02 3.46064441e+02 3.46064441e+02 3.46064441e+02 3.46064441e+02 3.46064441e+02 
        </DataArray>
        <DataArray type="Float64" Name="Mach">
          8.00000000e+00 8.00000000e+00 8.00000000e+00 8.00000000e+00 8.00000000e+00 8.00000000e+00 8.00000000e+00 8.00000000e+00 8.00000000e+00 8.00000000e+00 8.00000000e+00 8.00000000e+00 8.00000000e+00 8.00000000e+00 8.00000000e+00 8.00000000e+00 
        </DataArray>
        <DataArray type="Float64" Name="Sensor">
          -1.39875230e+01 -1.39875230e+01 -1.39875230e+01 -1.39875230e+01 -1.39875230e+01 -1.39875230e+01 -1.39875230e+01 -1.39875230e+01 -1.39875230e+01 -1.39875230e+01 -1.39875230e+01 -1.39875230e+01 -1.39875230e+01 -1.39875230e+01 -1.39875230e+01 -1.39875230e+01 
        </DataArray>
        <DataArray type="Float64" Name="ArtificialVisc">
          0.00000000e+00 0.00000000e+00 0.00000000e+00 0.00000000e+00 0.00000000e+00 0.00000000e+00 0.00000000e+00 0.00000000e+00 0.00000000e+00 0.00000000e+00 0.00000000e+00 0.00000000e+00 0.00000000e+00 0.00000000e+00 0.00000000e+00 0.00000000e+00 
        </DataArray>
      </PointData>
    </Piece>
    <Piece NumberOfPoints="16" NumberOfCells="9">
      <Points>
        <DataArray type="Float64" NumberOfComponents="3" format="ascii">
          0.00000000e+00 3.33333351e-02 0.00000000e+00 
8.33333377e-03 3.33333351e-02 0.00000000e+00 
1.66666675e-02 3.33333351e-02 0.00000000e+00 
2.50000004e-02 3.33333351e-02 0.00000000e+00 
0.00000000e+00 5.55555560e-02 0.00000000e+00 
5.55555569e-03 5.55555560e-02 0.00000000e+00 
1.11111114e-02 5.55555560e-02 0.00000000e+00 
1.66666675e-02 5.55555560e-02 0.00000000e+00 
0.00000000e+00 7.77777806e-02 0.00000000e+00 
2.77777785e-03 7.77777806e-02 0.00000000e+00 
5.55555569e-03 7.77777806e-02 0.00000000e+00 
8.33333377e-03 7.77777806e-02 0.00000000e+00 
0.00000000e+00 1.00000001e-01 0.00000000e+00 
0.00000000e+00 1.00000001e-01 0.00000000e+00 
0.00000000e+00 1.00000001e-01 0.00000000e+00 
0.00000000e+00 1.00000001e-01 0.00000000e+00 

        </DataArray>
      </Points>
      <Cells>
        <DataArray type="Int32" Name="connectivity" format="ascii">
0 1 5 4
4 5 9 8
8 9 13 12
1 2 6 5
5 6 10 9
9 10 14 13
2 3 7 6
6 7 11 10
10 11 15 14

        </DataArray>
        <DataArray type="Int32" Name="offsets" format="ascii">
4 8 12 16 20 24 28 32 36 
        </DataArray>
        <DataArray type="UInt8" Name="types" format="ascii">
9 9 9 9 9 9 9 9 9 
        </DataArray>
      </Cells>
      <PointData>
        <DataArray type="Float64" Name="rho">
          1.20000000e+00 1.20000000e+00 1.20000000e+00 1.20000000e+00 1.20000000e+00 1.20000000e+00 1.20000000e+00 1.20000000e+00 1.20000000e+00 1.20000000e+00 1.20000000e+00 1.20000000e+00 1.20000000e+00 1.20000000e+00 1.20000000e+00 1.20000000e+00 
        </DataArray>
        <DataArray type="Float64" Name="rhou">
          3.32221864e+03 3.32221864e+03 3.32221864e+03 3.32221864e+03 3.32221864e+03 3.32221864e+03 3.32221864e+03 3.32221864e+03 3.32221864e+03 3.32221864e+03 3.32221864e+03 3.32221864e+03 3.32221864e+03 3.32221864e+03 3.32221864e+03 3.32221864e+03 
        </DataArray>
        <DataArray type="Float64" Name="rhov">
          0.00000000e+00 0.00000000e+00 0.00000000e+00 0.00000000e+00 0.00000000e+00 0.00000000e+00 0.00000000e+00 0.00000000e+00 0.00000000e+00 0.00000000e+00 0.00000000e+00 0.00000000e+00 0.00000000e+00 0.00000000e+00 0.00000000e+00 0.00000000e+00 
        </DataArray>
        <DataArray type="Float64" Name="E">
          4.85543680e+06 4.85543680e+06 4.85543680e+06 4.85543680e+06 4.85543680e+06 4.85543680e+06 4.85543680e+06 4.85543680e+06 4.85543680e+06 4.85543680e+06 4.85543680e+06 4.85543680e+06 4.85543680e+06 4.85543680e+06 4.85543680e+06 4.85543680e+06 
        </DataArray>
        <DataArray type="Float64" Name="u">
          2.76851553e+03 2.76851553e+03 2.76851553e+03 2.76851553e+03 2.76851553e+03 2.76851553e+03 2.76851553e+03 2.76851553e+03 2.76851553e+03 2.76851553e+03 2.76851553e+03 2.76851553e+03 2.76851553e+03 2.76851553e+03 2.76851553e+03 2.76851553e+03 
        </DataArray>
        <DataArray type="Float64" Name="v">
          0.00000000e+00 0.00000000e+00 0.00000000e+00 0.00000000e+00 0.00000000e+00 0.00000000e+00 0.00000000e+00 0.00000000e+00 0.00000000e+00 0.00000000e+00 0.00000000e+00 0.00000000e+00 0.00000000e+00 0.00000000e+00 0.00000000e+00 0.00000000e+00 
        </DataArray>
        <DataArray type="Float64" Name="p">
          1.02651941e+05 1.02651941e+05 1.02651941e+05 1.02651941e+05 1.02651941e+05 1.02651941e+05 1.02651941e+05 1.02651941e+05 1.02651941e+05 1.02651941e+05 1.02651941e+05 1.02651941e+05 1.02651941e+05 1.02651941e+05 1.02651941e+05 1.02651941e+05 
        </DataArray>
        <DataArray type="Float64" Name="T">
          2.98000000e+02 2.98000000e+02 2.98000000e+02 2.98000000e+02 2.98000000e+02 2.98000000e+02 2.98000000e+02 2.98000000e+02 2.98000000e+02 2.98000000e+02 2.98000000e+02 2.98000000e+02 2.98000000e+02 2.98000000e+02 2.98000000e+02 2.98000000e+02 
        </DataArray>
        <DataArray type="Float64" Name="s">
          4.03615379e+03 4.03615379e+03 4.03615379e+03 4.03615379e+03 4.03615379e+03 4.03615379e+03 4.03615379e+03 4.03615379e+03 4.03615379e+03 4.03615379e+03 4.03615379e+03 4.03615379e+03 4.03615379e+03 4.03615379e+03 4.03615379e+03 4.03615379e+03 
        </DataArray>
        <DataArray type="Float64" Name="a">
          3.46064441e+02 3.46064441e+02 3.46064441e+02 3.46064441e+02 3.46064441e+02 3.46064441e+02 3.46064441e+02 3.46064441e+02 3.46064441e+02 3.46064441e+02 3.46064441e+02 3.46064441e+02 3.46064441e+02 3.46064441e+02 3.46064441e+02 3.46064441e+02 
        </DataArray>
        <DataArray type="Float64" Name="Mach">
          8.00000000e+00 8.00000000e+00 8.00000000e+00 8.00000000e+00 8.00000000e+00 8.00000000e+00 8.00000000e+00 8.00000000e+00 8.00000000e+00 8.00000000e+00 8.00000000e+00 8.00000000e+00 8.00000000e+00 8.00000000e+00 8.00000000e+00 8.00000000e+00 
        </DataArray>
        <DataArray type="Float64" Name="Sensor">
          -1.40263764e+01 -1.40263764e+01 -1.40263764e+01 -1.40263764e+01 -1.40263764e+01 -1.40263764e+01 -1.40263764e+01 -1.40263764e+01 -1.40263764e+01 -1.40263764e+01 -1.40263764e+01 -1.40263764e+01 -1.40263764e+01 -1.40263764e+01 -1.40263764e+01 -1.40263764e+01 
        </DataArray>
        <DataArray type="Float64" Name="ArtificialVisc">
          0.00000000e+00 0.00000000e+00 0.00000000e+00 0.00000000e+00 0.00000000e+00 0.00000000e+00 0.00000000e+00 0.00000000e+00 0.00000000e+00 0.00000000e+00 0.00000000e+00 0.00000000e+00 0.00000000e+00 0.00000000e+00 0.00000000e+00 0.00000000e+00 
        </DataArray>
      </PointData>
    </Piece>
    <Piece NumberOfPoints="16" NumberOfCells="9">
      <Points>
        <DataArray type="Float64" NumberOfComponents="3" format="ascii">
          0.00000000e+00 1.00000001e-01 0.00000000e+00 
8.33333377e-03 7.77777806e-02 0.00000000e+00 
1.66666675e-02 5.55555560e-02 0.00000000e+00 
2.50000004e-02 3.33333351e-02 0.00000000e+00 
8.33333377e-03 1.00000001e-01 0.00000000e+00 
1.38888890e-02 8.51851851e-02 0.00000000e+00 
1.94444451e-02 7.03703687e-02 0.00000000e+00 
2.50000004e-02 5.55555560e-02 0.00000000e+00 
1.66666675e-02 1.00000001e-01 0.00000000e+00 
1.94444451e-02 9.25925896e-02 0.00000000e+00 
2.22222228e-02 8.51851851e-02 0.00000000e+00 
2.50000004e-02 7.77777806e-02 0.00000000e+00 
2.50000004e-02 1.00000001e-01 0.00000000e+00 
2.50000004e-02 1.00000001e-01 0.00000000e+00 
2.50000004e-02 1.00000001e-01 0.00000000e+00 
2.50000004e-02 1.00000001e-01 0.00000000e+00 

        </DataArray>
      </Points>
      <Cells>
        <DataArray type="Int32" Name="connectivity" format="ascii">
0 1 5 4
4 5 9 8
8 9 13 12
1 2 6 5
5 6 10 9
9 10 14 13
2 3 7 6
6 7 11 10
10 11 15 14

        </DataArray>
        <DataArray type="Int32" Name="offsets" format="ascii">
4 8 12 16 20 24 28 32 36 
        </DataArray>
        <DataArray type="UInt8" Name="types" format="ascii">
9 9 9 9 9 9 9 9 9 
        </DataArray>
      </Cells>
      <PointData>
        <DataArray type="Float64" Name="rho">
          1.20000000e+00 1.20000000e+00 1.20000000e+00 1.20000000e+00 1.20000000e+00 1.20000000e+00 1.20000000e+00 1.20000000e+00 1.20000000e+00 1.20000000e+00 1.20000000e+00 1.20000000e+00 1.20000000e+00 1.20000000e+00 1.20000000e+00 1.20000000e+00 
        </DataArray>
        <DataArray type="Float64" Name="rhou">
          3.32221864e+03 3.32221864e+03 3.32221864e+03 3.32221864e+03 3.32221864e+03 3.32221864e+03 3.32221864e+03 3.32221864e+03 3.32221864e+03 3.32221864e+03 3.32221864e+03 3.32221864e+03 3.32221864e+03 3.32221864e+03 3.32221864e+03 3.32221864e+03 
        </DataArray>
        <DataArray type="Float64" Name="rhov">